 Entering Gaussian System, Link 0=g09
 Input=produkt.com
 Output=produkt.log
 Initial command:
 /software/ncbr/softrepo/secret/gaussian/09.C1/x86_64/node/l1.exe /auto/home/kulhanek/Data/produkt/opt/Gau-2765.inp -scrdir=/auto/home/kulhanek/Data/produkt/opt/
 Entering Link 1 = /software/ncbr/softrepo/secret/gaussian/09.C1/x86_64/node/l1.exe PID=      2767.
  
 Copyright (c) 1988,1990,1992,1993,1995,1998,2003,2009,2011,
            Gaussian, Inc.  All Rights Reserved.
  
 This is part of the Gaussian(R) 09 program.  It is based on
 the Gaussian(R) 03 system (copyright 2003, Gaussian, Inc.),
 the Gaussian(R) 98 system (copyright 1998, Gaussian, Inc.),
 the Gaussian(R) 94 system (copyright 1995, Gaussian, Inc.),
 the Gaussian 92(TM) system (copyright 1992, Gaussian, Inc.),
 the Gaussian 90(TM) system (copyright 1990, Gaussian, Inc.),
 the Gaussian 88(TM) system (copyright 1988, Gaussian, Inc.),
 the Gaussian 86(TM) system (copyright 1986, Carnegie Mellon
 University), and the Gaussian 82(TM) system (copyright 1983,
 Carnegie Mellon University). Gaussian is a federally registered
 trademark of Gaussian, Inc.
  
 This software contains proprietary and confidential information,
 including trade secrets, belonging to Gaussian, Inc.
  
 This software is provided under written license and may be
 used, copied, transmitted, or stored only in accord with that
 written license.
  
 The following legend is applicable only to US Government
 contracts under FAR:
  
                    RESTRICTED RIGHTS LEGEND
  
 Use, reproduction and disclosure by the US Government is
 subject to restrictions as set forth in subparagraphs (a)
 and (c) of the Commercial Computer Software - Restricted
 Rights clause in FAR 52.227-19.
  
 Gaussian, Inc.
 340 Quinnipiac St., Bldg. 40, Wallingford CT 06492
  
  
 ---------------------------------------------------------------
 Warning -- This program may not be used in any manner that
 competes with the business of Gaussian, Inc. or will provide
 assistance to any competitor of Gaussian, Inc.  The licensee
 of this program is prohibited from giving any competitor of
 Gaussian, Inc. access to this program.  By using this program,
 the user acknowledges that Gaussian, Inc. is engaged in the
 business of creating and licensing software in the field of
 computational chemistry and represents and warrants to the
 licensee that it is not a competitor of Gaussian, Inc. and that
 it will not use this program in any manner prohibited above.
 ---------------------------------------------------------------
  

 Cite this work as:
 Gaussian 09, Revision C.01,
 M. J. Frisch, G. W. Trucks, H. B. Schlegel, G. E. Scuseria, 
 M. A. Robb, J. R. Cheeseman, G. Scalmani, V. Barone, B. Mennucci, 
 G. A. Petersson, H. Nakatsuji, M. Caricato, X. Li, H. P. Hratchian, 
 A. F. Izmaylov, J. Bloino, G. Zheng, J. L. Sonnenberg, M. Hada, 
 M. Ehara, K. Toyota, R. Fukuda, J. Hasegawa, M. Ishida, T. Nakajima, 
 Y. Honda, O. Kitao, H. Nakai, T. Vreven, J. A. Montgomery, Jr., 
 J. E. Peralta, F. Ogliaro, M. Bearpark, J. J. Heyd, E. Brothers, 
 K. N. Kudin, V. N. Staroverov, T. Keith, R. Kobayashi, J. Normand, 
 K. Raghavachari, A. Rendell, J. C. Burant, S. S. Iyengar, J. Tomasi, 
 M. Cossi, N. Rega, J. M. Millam, M. Klene, J. E. Knox, J. B. Cross, 
 V. Bakken, C. Adamo, J. Jaramillo, R. Gomperts, R. E. Stratmann, 
 O. Yazyev, A. J. Austin, R. Cammi, C. Pomelli, J. W. Ochterski, 
 R. L. Martin, K. Morokuma, V. G. Zakrzewski, G. A. Voth, 
 P. Salvador, J. J. Dannenberg, S. Dapprich, A. D. Daniels, 
 O. Farkas, J. B. Foresman, J. V. Ortiz, J. Cioslowski, 
 and D. J. Fox, Gaussian, Inc., Wallingford CT, 2010.
 
 ******************************************
 Gaussian 09:  EM64L-G09RevC.01 23-Sep-2011
                15-Oct-2012 
 ******************************************
 ----------------
 # PM3 Opt NoSymm
 ----------------
 1/14=-1,18=20,19=15,26=1,38=1/1,3;
 2/9=110,12=2,15=1,17=6,18=5,40=1/2;
 3/5=2,16=1,25=1,41=800000,71=1/1,2,3;
 4/35=1/1;
 5/5=2,35=1,38=5/2;
 6/7=2,8=2,9=2,10=2,28=1/1;
 7/30=1/1,2,3,16;
 1/14=-1,18=20,19=15/3(2);
 2/9=110,15=1/2;
 99//99;
 2/9=110,15=1/2;
 3/5=2,16=1,25=1,41=800000,71=1,135=20/1,2,3;
 4/5=5,16=3,35=1/1;
 5/5=2,35=1,38=5/2;
 7/30=1/1,2,3,16;
 1/14=-1,18=20,19=15/3(-5);
 2/9=110,15=1/2;
 6/7=2,8=2,9=2,10=2,19=2,28=1/1;
 99/9=1/99;
 -----
 Title
 -----
 Charge =  0 Multiplicity = 1
 Symbolic Z-Matrix:
 C                    -1.80812   3.6088    0.62181 
 C                    -1.80488   2.27554   0.44615 
 C                    -0.63361   4.34197  -0.0012 
 C                    -0.61346   1.73136  -0.32166 
 C                     0.66506   3.74184   0.60156 
 C                     0.6487    2.1842    0.46323 
 H                     0.76146   4.01466   1.6751 
 H                     1.5421    4.16794   0.06669 
 H                     0.61091   1.72437   1.47598 
 H                     1.58205   1.83122  -0.02652 
 C                    -0.58605   2.43741  -1.70396 
 H                    -0.64804   0.62576  -0.42408 
 C                    -0.65766   3.98803  -1.51391 
 H                     0.34985   2.15614  -2.23483 
 H                    -1.44119   2.10399  -2.33146 
 H                    -1.61084   4.3687   -1.94412 
 H                     0.17392   4.48199  -2.06169 
 H                    -0.69177   5.44016   0.15574 
 H                    -2.59993   4.11961   1.15966 
 H                    -2.5918    1.63862   0.83636 
 

 GradGradGradGradGradGradGradGradGradGradGradGradGradGradGradGradGradGrad
 Berny optimization.
 Initialization pass.
                           ----------------------------
                           !    Initial Parameters    !
                           ! (Angstroms and Degrees)  !
 --------------------------                            --------------------------
 ! Name  Definition              Value          Derivative Info.                !
 --------------------------------------------------------------------------------
 ! R1    R(1,2)                  1.3448         estimate D2E/DX2                !
 ! R2    R(1,3)                  1.5183         estimate D2E/DX2                !
 ! R3    R(1,19)                 1.085          estimate D2E/DX2                !
 ! R4    R(2,4)                  1.5183         estimate D2E/DX2                !
 ! R5    R(2,20)                 1.085          estimate D2E/DX2                !
 ! R6    R(3,5)                  1.5524         estimate D2E/DX2                !
 ! R7    R(3,13)                 1.5538         estimate D2E/DX2                !
 ! R8    R(3,18)                 1.1109         estimate D2E/DX2                !
 ! R9    R(4,6)                  1.5538         estimate D2E/DX2                !
 ! R10   R(4,11)                 1.5524         estimate D2E/DX2                !
 ! R11   R(4,12)                 1.1109         estimate D2E/DX2                !
 ! R12   R(5,6)                  1.5639         estimate D2E/DX2                !
 ! R13   R(5,7)                  1.1119         estimate D2E/DX2                !
 ! R14   R(5,8)                  1.1121         estimate D2E/DX2                !
 ! R15   R(6,9)                  1.1129         estimate D2E/DX2                !
 ! R16   R(6,10)                 1.1116         estimate D2E/DX2                !
 ! R17   R(11,13)                1.5639         estimate D2E/DX2                !
 ! R18   R(11,14)                1.1121         estimate D2E/DX2                !
 ! R19   R(11,15)                1.1118         estimate D2E/DX2                !
 ! R20   R(13,16)                1.1129         estimate D2E/DX2                !
 ! R21   R(13,17)                1.1116         estimate D2E/DX2                !
 ! A1    A(2,1,3)              115.0428         estimate D2E/DX2                !
 ! A2    A(2,1,19)             122.2273         estimate D2E/DX2                !
 ! A3    A(3,1,19)             122.7261         estimate D2E/DX2                !
 ! A4    A(1,2,4)              115.0429         estimate D2E/DX2                !
 ! A5    A(1,2,20)             122.2272         estimate D2E/DX2                !
 ! A6    A(4,2,20)             122.726          estimate D2E/DX2                !
 ! A7    A(1,3,5)              107.5258         estimate D2E/DX2                !
 ! A8    A(1,3,13)             106.1126         estimate D2E/DX2                !
 ! A9    A(1,3,18)             112.2663         estimate D2E/DX2                !
 ! A10   A(5,3,13)             107.632          estimate D2E/DX2                !
 ! A11   A(5,3,18)             111.7839         estimate D2E/DX2                !
 ! A12   A(13,3,18)            111.2188         estimate D2E/DX2                !
 ! A13   A(2,4,6)              106.1126         estimate D2E/DX2                !
 ! A14   A(2,4,11)             107.526          estimate D2E/DX2                !
 ! A15   A(2,4,12)             112.2667         estimate D2E/DX2                !
 ! A16   A(6,4,11)             107.6321         estimate D2E/DX2                !
 ! A17   A(6,4,12)             111.2185         estimate D2E/DX2                !
 ! A18   A(11,4,12)            111.7836         estimate D2E/DX2                !
 ! A19   A(3,5,6)              109.9954         estimate D2E/DX2                !
 ! A20   A(3,5,7)              110.6443         estimate D2E/DX2                !
 ! A21   A(3,5,8)              108.9571         estimate D2E/DX2                !
 ! A22   A(6,5,7)              109.3121         estimate D2E/DX2                !
 ! A23   A(6,5,8)              110.3236         estimate D2E/DX2                !
 ! A24   A(7,5,8)              107.5767         estimate D2E/DX2                !
 ! A25   A(4,6,5)              110.0885         estimate D2E/DX2                !
 ! A26   A(4,6,9)              108.1613         estimate D2E/DX2                !
 ! A27   A(4,6,10)             111.5287         estimate D2E/DX2                !
 ! A28   A(5,6,9)              109.3539         estimate D2E/DX2                !
 ! A29   A(5,6,10)             110.2719         estimate D2E/DX2                !
 ! A30   A(9,6,10)             107.3526         estimate D2E/DX2                !
 ! A31   A(4,11,13)            109.9949         estimate D2E/DX2                !
 ! A32   A(4,11,14)            108.9575         estimate D2E/DX2                !
 ! A33   A(4,11,15)            110.6443         estimate D2E/DX2                !
 ! A34   A(13,11,14)           110.323          estimate D2E/DX2                !
 ! A35   A(13,11,15)           109.3119         estimate D2E/DX2                !
 ! A36   A(14,11,15)           107.5775         estimate D2E/DX2                !
 ! A37   A(3,13,11)            110.0887         estimate D2E/DX2                !
 ! A38   A(3,13,16)            108.1614         estimate D2E/DX2                !
 ! A39   A(3,13,17)            111.5291         estimate D2E/DX2                !
 ! A40   A(11,13,16)           109.3536         estimate D2E/DX2                !
 ! A41   A(11,13,17)           110.2718         estimate D2E/DX2                !
 ! A42   A(16,13,17)           107.3523         estimate D2E/DX2                !
 ! D1    D(3,1,2,4)              1.128          estimate D2E/DX2                !
 ! D2    D(3,1,2,20)          -179.5646         estimate D2E/DX2                !
 ! D3    D(19,1,2,4)          -179.5647         estimate D2E/DX2                !
 ! D4    D(19,1,2,20)           -0.2573         estimate D2E/DX2                !
 ! D5    D(2,1,3,5)            -57.6699         estimate D2E/DX2                !
 ! D6    D(2,1,3,13)            57.2821         estimate D2E/DX2                !
 ! D7    D(2,1,3,18)           178.9748         estimate D2E/DX2                !
 ! D8    D(19,1,3,5)           123.0267         estimate D2E/DX2                !
 ! D9    D(19,1,3,13)         -122.0213         estimate D2E/DX2                !
 ! D10   D(19,1,3,18)           -0.3287         estimate D2E/DX2                !
 ! D11   D(1,2,4,6)             57.2822         estimate D2E/DX2                !
 ! D12   D(1,2,4,11)           -57.67           estimate D2E/DX2                !
 ! D13   D(1,2,4,12)           178.9746         estimate D2E/DX2                !
 ! D14   D(20,2,4,6)          -122.0214         estimate D2E/DX2                !
 ! D15   D(20,2,4,11)          123.0264         estimate D2E/DX2                !
 ! D16   D(20,2,4,12)           -0.3289         estimate D2E/DX2                !
 ! D17   D(1,3,5,6)             51.6705         estimate D2E/DX2                !
 ! D18   D(1,3,5,7)            -69.2047         estimate D2E/DX2                !
 ! D19   D(1,3,5,8)            172.7205         estimate D2E/DX2                !
 ! D20   D(13,3,5,6)           -62.2677         estimate D2E/DX2                !
 ! D21   D(13,3,5,7)           176.857          estimate D2E/DX2                !
 ! D22   D(13,3,5,8)            58.7823         estimate D2E/DX2                !
 ! D23   D(18,3,5,6)           175.3207         estimate D2E/DX2                !
 ! D24   D(18,3,5,7)            54.4454         estimate D2E/DX2                !
 ! D25   D(18,3,5,8)           -63.6293         estimate D2E/DX2                !
 ! D26   D(1,3,13,11)          -57.1944         estimate D2E/DX2                !
 ! D27   D(1,3,13,16)           62.2341         estimate D2E/DX2                !
 ! D28   D(1,3,13,17)         -179.9369         estimate D2E/DX2                !
 ! D29   D(5,3,13,11)           57.6852         estimate D2E/DX2                !
 ! D30   D(5,3,13,16)          177.1137         estimate D2E/DX2                !
 ! D31   D(5,3,13,17)          -65.0573         estimate D2E/DX2                !
 ! D32   D(18,3,13,11)        -179.5549         estimate D2E/DX2                !
 ! D33   D(18,3,13,16)         -60.1264         estimate D2E/DX2                !
 ! D34   D(18,3,13,17)          57.7026         estimate D2E/DX2                !
 ! D35   D(2,4,6,5)            -57.1944         estimate D2E/DX2                !
 ! D36   D(2,4,6,9)             62.2342         estimate D2E/DX2                !
 ! D37   D(2,4,6,10)          -179.9367         estimate D2E/DX2                !
 ! D38   D(11,4,6,5)            57.6855         estimate D2E/DX2                !
 ! D39   D(11,4,6,9)           177.1141         estimate D2E/DX2                !
 ! D40   D(11,4,6,10)          -65.0568         estimate D2E/DX2                !
 ! D41   D(12,4,6,5)          -179.5552         estimate D2E/DX2                !
 ! D42   D(12,4,6,9)           -60.1265         estimate D2E/DX2                !
 ! D43   D(12,4,6,10)           57.7025         estimate D2E/DX2                !
 ! D44   D(2,4,11,13)           51.6705         estimate D2E/DX2                !
 ! D45   D(2,4,11,14)          172.7198         estimate D2E/DX2                !
 ! D46   D(2,4,11,15)          -69.2041         estimate D2E/DX2                !
 ! D47   D(6,4,11,13)          -62.2678         estimate D2E/DX2                !
 ! D48   D(6,4,11,14)           58.7815         estimate D2E/DX2                !
 ! D49   D(6,4,11,15)          176.8575         estimate D2E/DX2                !
 ! D50   D(12,4,11,13)         175.3211         estimate D2E/DX2                !
 ! D51   D(12,4,11,14)         -63.6296         estimate D2E/DX2                !
 ! D52   D(12,4,11,15)          54.4464         estimate D2E/DX2                !
 ! D53   D(3,5,6,4)              3.9399         estimate D2E/DX2                !
 ! D54   D(3,5,6,9)           -114.76           estimate D2E/DX2                !
 ! D55   D(3,5,6,10)           127.4181         estimate D2E/DX2                !
 ! D56   D(7,5,6,4)            125.6126         estimate D2E/DX2                !
 ! D57   D(7,5,6,9)              6.9127         estimate D2E/DX2                !
 ! D58   D(7,5,6,10)          -110.9092         estimate D2E/DX2                !
 ! D59   D(8,5,6,4)           -116.2867         estimate D2E/DX2                !
 ! D60   D(8,5,6,9)            125.0134         estimate D2E/DX2                !
 ! D61   D(8,5,6,10)             7.1915         estimate D2E/DX2                !
 ! D62   D(4,11,13,3)            3.9399         estimate D2E/DX2                !
 ! D63   D(4,11,13,16)        -114.7601         estimate D2E/DX2                !
 ! D64   D(4,11,13,17)         127.4187         estimate D2E/DX2                !
 ! D65   D(14,11,13,3)        -116.2866         estimate D2E/DX2                !
 ! D66   D(14,11,13,16)        125.0134         estimate D2E/DX2                !
 ! D67   D(14,11,13,17)          7.1922         estimate D2E/DX2                !
 ! D68   D(15,11,13,3)         125.6121         estimate D2E/DX2                !
 ! D69   D(15,11,13,16)          6.9121         estimate D2E/DX2                !
 ! D70   D(15,11,13,17)       -110.9091         estimate D2E/DX2                !
 --------------------------------------------------------------------------------
 Trust Radius=3.00D-01 FncErr=1.00D-07 GrdErr=1.00D-07
 Number of steps in this run=    120 maximum allowed number of steps=    120.
 GradGradGradGradGradGradGradGradGradGradGradGradGradGradGradGradGradGrad

                          Input orientation:                          
 ---------------------------------------------------------------------
 Center     Atomic      Atomic             Coordinates (Angstroms)
 Number     Number       Type             X           Y           Z
 ---------------------------------------------------------------------
      1          6           0       -1.808120    3.608800    0.621810
      2          6           0       -1.804880    2.275540    0.446150
      3          6           0       -0.633610    4.341970   -0.001200
      4          6           0       -0.613460    1.731360   -0.321660
      5          6           0        0.665060    3.741840    0.601560
      6          6           0        0.648700    2.184200    0.463230
      7          1           0        0.761460    4.014660    1.675100
      8          1           0        1.542100    4.167940    0.066690
      9          1           0        0.610910    1.724370    1.475980
     10          1           0        1.582050    1.831220   -0.026520
     11          6           0       -0.586050    2.437410   -1.703960
     12          1           0       -0.648040    0.625760   -0.424080
     13          6           0       -0.657660    3.988030   -1.513910
     14          1           0        0.349850    2.156140   -2.234830
     15          1           0       -1.441190    2.103990   -2.331460
     16          1           0       -1.610840    4.368700   -1.944120
     17          1           0        0.173920    4.481990   -2.061690
     18          1           0       -0.691770    5.440160    0.155740
     19          1           0       -2.599930    4.119610    1.159660
     20          1           0       -2.591800    1.638620    0.836360
 ---------------------------------------------------------------------
                    Distance matrix (angstroms):
                    1          2          3          4          5
     1  C    0.000000
     2  C    1.344786   0.000000
     3  C    1.518273   2.417050   0.000000
     4  C    2.417050   1.518271   2.630282   0.000000
     5  C    2.476839   2.876594   1.552424   2.555187   0.000000
     6  C    2.844398   2.455339   2.552643   1.553758   1.563856
     7  H    2.806579   3.334810   2.205297   3.330302   1.111851
     8  H    3.441623   3.863605   2.183715   3.276305   1.112136
     9  H    3.183141   2.683352   3.253109   2.175004   2.199484
    10  H    3.882444   3.448497   3.348680   2.217508   2.210390
    11  C    2.876598   2.476837   2.555191   1.552421   2.929545
    12  H    3.367224   2.194847   3.740221   1.110872   3.533571
    13  C    2.455336   2.844393   1.553751   2.552640   2.507072
    14  H    3.863606   3.441623   3.276301   2.183718   3.264799
    15  H    3.334801   2.806567   3.330293   2.205286   3.965028
    16  H    2.683349   3.183137   2.175001   3.253107   3.471766
    17  H    3.448495   3.882439   2.217505   3.348677   2.807479
    18  H    2.194844   3.367220   1.110871   3.740219   2.219016
    19  H    1.084976   2.131149   2.294222   3.441527   3.333818
    20  H    2.131149   1.084977   3.441528   2.294219   3.884045
                    6          7          8          9         10
     6  C    0.000000
     7  H    2.198165   0.000000
     8  H    2.211477   1.794401   0.000000
     9  H    1.112895   2.303854   2.970563   0.000000
    10  H    1.111572   2.887263   2.338920   1.792215   0.000000
    11  C    2.507077   3.965041   3.264806   3.471766   2.807477
    12  H    2.213050   4.228225   4.193400   2.530242   2.566026
    13  C    2.978164   3.490615   2.714702   3.958897   3.446804
    14  H    2.714706   4.348686   3.281127   3.744955   2.549612
    15  H    3.490611   4.955285   4.348682   4.341869   3.811447
    16  H    3.958901   4.341878   3.744956   4.860631   4.506722
    17  H    3.446807   3.811456   2.549617   4.506721   3.626476
    18  H    3.534499   2.540154   2.572285   4.152963   4.269417
    19  H    3.845052   3.402299   4.284079   4.018299   4.912505
    20  H    3.307223   4.194449   4.907034   3.267081   4.266460
                   11         12         13         14         15
    11  C    0.000000
    12  H    2.219011   0.000000
    13  C    1.563864   3.534499   0.000000
    14  H    1.112135   2.572287   2.211475   0.000000
    15  H    1.111841   2.540147   2.198162   1.794403   0.000000
    16  H    2.199489   4.152963   1.112898   2.970562   2.303850
    17  H    2.210392   4.269414   1.111569   2.338912   2.887255
    18  H    3.533577   4.849387   2.213047   4.193398   4.228218
    19  H    3.884048   4.304079   3.307220   4.907034   4.194439
    20  H    3.333815   2.528398   3.845048   4.284080   3.402287
                   16         17         18         19         20
    16  H    0.000000
    17  H    1.792212   0.000000
    18  H    2.530243   2.566029   0.000000
    19  H    3.267077   4.266457   2.528395   0.000000
    20  H    4.018294   4.912500   4.304075   2.501979   0.000000
 Symmetry turned off by external request.
 Stoichiometry    C8H12
 Framework group  C1[X(C8H12)]
 Deg. of freedom    54
 Full point group                 C1      NOp   1
 Rotational constants (GHZ):      2.5737450      2.4895785      2.4249634
 Standard basis: VSTO-6G (5D, 7F)
 Integral buffers will be    131072 words long.
 Regular integral format.
 Two-electron integral symmetry is turned off.
    44 basis functions,   264 primitive gaussians,    44 cartesian basis functions
    22 alpha electrons       22 beta electrons
       nuclear repulsion energy       221.3077446025 Hartrees.
 Do NDO integrals.
 One-electron integrals computed using PRISM.
 NBasis=    44 RedAO= F  NBF=    44
 NBsUse=    44 1.00D-04 NBFU=    44
 Simple Huckel Guess.
 Requested convergence on RMS density matrix=1.00D-08 within 128 cycles.
 Requested convergence on MAX density matrix=1.00D-06.
 Requested convergence on             energy=1.00D-06.
 No special actions if energy rises.
 Overlap will be assumed to be unity.
 Keep J ints in memory in canonical form, NReq=887705.
 SCF Done:  E(RPM3) =  0.687949781624E-02 A.U. after   11 cycles
             Convg  =    0.8899D-08             -V/T =  1.0002

 **********************************************************************

            Population analysis using the SCF density.

 **********************************************************************

 Alpha  occ. eigenvalues --   -1.55286  -1.12404  -1.11170  -1.09614  -0.79647
 Alpha  occ. eigenvalues --   -0.78021  -0.75661  -0.66013  -0.60980  -0.58265
 Alpha  occ. eigenvalues --   -0.56897  -0.52673  -0.49631  -0.49394  -0.49275
 Alpha  occ. eigenvalues --   -0.48819  -0.47924  -0.45983  -0.41822  -0.40792
 Alpha  occ. eigenvalues --   -0.40375  -0.36266
 Alpha virt. eigenvalues --    0.04161   0.12603   0.12693   0.13071   0.13075
 Alpha virt. eigenvalues --    0.13519   0.13952   0.14147   0.14662   0.15311
 Alpha virt. eigenvalues --    0.15574   0.16086   0.16327   0.16474   0.17277
 Alpha virt. eigenvalues --    0.17655   0.17835   0.18069   0.18932   0.19211
 Alpha virt. eigenvalues --    0.21102   0.22129
          Condensed to atoms (all electrons):
              1          2          3          4          5          6
     1  C    4.152320   0.000000   0.000000   0.000000   0.000000   0.000000
     2  C    0.000000   4.152319   0.000000   0.000000   0.000000   0.000000
     3  C    0.000000   0.000000   4.037200   0.000000   0.000000   0.000000
     4  C    0.000000   0.000000   0.000000   4.037201   0.000000   0.000000
     5  C    0.000000   0.000000   0.000000   0.000000   4.092736   0.000000
     6  C    0.000000   0.000000   0.000000   0.000000   0.000000   4.095551
     7  H    0.000000   0.000000   0.000000   0.000000   0.000000   0.000000
     8  H    0.000000   0.000000   0.000000   0.000000   0.000000   0.000000
     9  H    0.000000   0.000000   0.000000   0.000000   0.000000   0.000000
    10  H    0.000000   0.000000   0.000000   0.000000   0.000000   0.000000
    11  C    0.000000   0.000000   0.000000   0.000000   0.000000   0.000000
    12  H    0.000000   0.000000   0.000000   0.000000   0.000000   0.000000
    13  C    0.000000   0.000000   0.000000   0.000000   0.000000   0.000000
    14  H    0.000000   0.000000   0.000000   0.000000   0.000000   0.000000
    15  H    0.000000   0.000000   0.000000   0.000000   0.000000   0.000000
    16  H    0.000000   0.000000   0.000000   0.000000   0.000000   0.000000
    17  H    0.000000   0.000000   0.000000   0.000000   0.000000   0.000000
    18  H    0.000000   0.000000   0.000000   0.000000   0.000000   0.000000
    19  H    0.000000   0.000000   0.000000   0.000000   0.000000   0.000000
    20  H    0.000000   0.000000   0.000000   0.000000   0.000000   0.000000
              7          8          9         10         11         12
     1  C    0.000000   0.000000   0.000000   0.000000   0.000000   0.000000
     2  C    0.000000   0.000000   0.000000   0.000000   0.000000   0.000000
     3  C    0.000000   0.000000   0.000000   0.000000   0.000000   0.000000
     4  C    0.000000   0.000000   0.000000   0.000000   0.000000   0.000000
     5  C    0.000000   0.000000   0.000000   0.000000   0.000000   0.000000
     6  C    0.000000   0.000000   0.000000   0.000000   0.000000   0.000000
     7  H    0.949132   0.000000   0.000000   0.000000   0.000000   0.000000
     8  H    0.000000   0.950254   0.000000   0.000000   0.000000   0.000000
     9  H    0.000000   0.000000   0.951071   0.000000   0.000000   0.000000
    10  H    0.000000   0.000000   0.000000   0.948124   0.000000   0.000000
    11  C    0.000000   0.000000   0.000000   0.000000   4.092736   0.000000
    12  H    0.000000   0.000000   0.000000   0.000000   0.000000   0.929945
    13  C    0.000000   0.000000   0.000000   0.000000   0.000000   0.000000
    14  H    0.000000   0.000000   0.000000   0.000000   0.000000   0.000000
    15  H    0.000000   0.000000   0.000000   0.000000   0.000000   0.000000
    16  H    0.000000   0.000000   0.000000   0.000000   0.000000   0.000000
    17  H    0.000000   0.000000   0.000000   0.000000   0.000000   0.000000
    18  H    0.000000   0.000000   0.000000   0.000000   0.000000   0.000000
    19  H    0.000000   0.000000   0.000000   0.000000   0.000000   0.000000
    20  H    0.000000   0.000000   0.000000   0.000000   0.000000   0.000000
             13         14         15         16         17         18
     1  C    0.000000   0.000000   0.000000   0.000000   0.000000   0.000000
     2  C    0.000000   0.000000   0.000000   0.000000   0.000000   0.000000
     3  C    0.000000   0.000000   0.000000   0.000000   0.000000   0.000000
     4  C    0.000000   0.000000   0.000000   0.000000   0.000000   0.000000
     5  C    0.000000   0.000000   0.000000   0.000000   0.000000   0.000000
     6  C    0.000000   0.000000   0.000000   0.000000   0.000000   0.000000
     7  H    0.000000   0.000000   0.000000   0.000000   0.000000   0.000000
     8  H    0.000000   0.000000   0.000000   0.000000   0.000000   0.000000
     9  H    0.000000   0.000000   0.000000   0.000000   0.000000   0.000000
    10  H    0.000000   0.000000   0.000000   0.000000   0.000000   0.000000
    11  C    0.000000   0.000000   0.000000   0.000000   0.000000   0.000000
    12  H    0.000000   0.000000   0.000000   0.000000   0.000000   0.000000
    13  C    4.095552   0.000000   0.000000   0.000000   0.000000   0.000000
    14  H    0.000000   0.950253   0.000000   0.000000   0.000000   0.000000
    15  H    0.000000   0.000000   0.949131   0.000000   0.000000   0.000000
    16  H    0.000000   0.000000   0.000000   0.951072   0.000000   0.000000
    17  H    0.000000   0.000000   0.000000   0.000000   0.948124   0.000000
    18  H    0.000000   0.000000   0.000000   0.000000   0.000000   0.929944
    19  H    0.000000   0.000000   0.000000   0.000000   0.000000   0.000000
    20  H    0.000000   0.000000   0.000000   0.000000   0.000000   0.000000
             19         20
     1  C    0.000000   0.000000
     2  C    0.000000   0.000000
     3  C    0.000000   0.000000
     4  C    0.000000   0.000000
     5  C    0.000000   0.000000
     6  C    0.000000   0.000000
     7  H    0.000000   0.000000
     8  H    0.000000   0.000000
     9  H    0.000000   0.000000
    10  H    0.000000   0.000000
    11  C    0.000000   0.000000
    12  H    0.000000   0.000000
    13  C    0.000000   0.000000
    14  H    0.000000   0.000000
    15  H    0.000000   0.000000
    16  H    0.000000   0.000000
    17  H    0.000000   0.000000
    18  H    0.000000   0.000000
    19  H    0.893667   0.000000
    20  H    0.000000   0.893668
 Mulliken atomic charges:
              1
     1  C   -0.152320
     2  C   -0.152319
     3  C   -0.037200
     4  C   -0.037201
     5  C   -0.092736
     6  C   -0.095551
     7  H    0.050868
     8  H    0.049746
     9  H    0.048929
    10  H    0.051876
    11  C   -0.092736
    12  H    0.070055
    13  C   -0.095552
    14  H    0.049747
    15  H    0.050869
    16  H    0.048928
    17  H    0.051876
    18  H    0.070056
    19  H    0.106333
    20  H    0.106332
 Sum of Mulliken atomic charges =   0.00000
 Mulliken charges with hydrogens summed into heavy atoms:
              1
     1  C   -0.045987
     2  C   -0.045987
     3  C    0.032856
     4  C    0.032854
     5  C    0.007878
     6  C    0.005255
    11  C    0.007880
    13  C    0.005252
 Sum of Mulliken charges with hydrogens summed into heavy atoms =   0.00000
 Charge=              0.0000 electrons
 Dipole moment (field-independent basis, Debye):
    X=              0.1500    Y=              0.0120    Z=             -0.0882  Tot=              0.1744
 N-N= 2.213077446025D+02 E-N=-3.849506582855D+02  KE=-2.831281876209D+01
 Calling FoFJK, ICntrl=      2127 FMM=F ISym2X=0 I1Cent= 0 IOpClX= 0 NMat=1 NMatS=1 NMatT=0.
 -------------------------------------------------------------------
 Center     Atomic                   Forces (Hartrees/Bohr)
 Number     Number              X              Y              Z
 -------------------------------------------------------------------
      1        6           0.010867030   -0.006649640   -0.007605556
      2        6           0.011035716    0.008399006   -0.005270160
      3        6          -0.000690638   -0.020056949   -0.001843410
      4        6          -0.001094122    0.019912078    0.002896013
      5        6          -0.006577197   -0.010908703   -0.004688614
      6        6          -0.006874615    0.011231769    0.000755841
      7        1           0.000063510    0.000676124   -0.005838413
      8        1          -0.003168490   -0.001473688    0.004017674
      9        1           0.002910679    0.000981426   -0.004969234
     10        1          -0.005381597    0.000492198    0.001813831
     11        6          -0.000360823    0.010361068    0.008773729
     12        1          -0.000027983    0.001396845   -0.000558302
     13        6          -0.002629019   -0.011993229    0.004824566
     14        1          -0.005187001    0.000805177    0.000893825
     15        1           0.005183975   -0.000258565    0.002747761
     16        1           0.005834098   -0.000283644   -0.000169662
     17        1          -0.004097113   -0.001248602    0.003758750
     18        1           0.000637799   -0.001347429    0.000200115
     19        1          -0.000177319    0.005654428    0.000977785
     20        1          -0.000266891   -0.005689670   -0.000716541
 -------------------------------------------------------------------
 Cartesian Forces:  Max     0.020056949 RMS     0.006189551

 GradGradGradGradGradGradGradGradGradGradGradGradGradGradGradGradGradGrad
 Berny optimization.
 Internal  Forces:  Max     0.018938557 RMS     0.004137514
 Search for a local minimum.
 Step number   1 out of a maximum of  120
 All quantities printed in internal units (Hartrees-Bohrs-Radians)
 Mixed Optimization -- RFO/linear search
 Second derivative matrix not updated -- first step.
 ITU=  0
     Eigenvalues ---    0.00301   0.00518   0.01082   0.01588   0.01757
     Eigenvalues ---    0.01844   0.02018   0.03211   0.03529   0.04136
     Eigenvalues ---    0.04327   0.04711   0.04880   0.05032   0.05085
     Eigenvalues ---    0.05110   0.05326   0.07466   0.07755   0.07757
     Eigenvalues ---    0.07803   0.07804   0.07864   0.07948   0.08430
     Eigenvalues ---    0.08748   0.09781   0.11271   0.12875   0.15996
     Eigenvalues ---    0.15999   0.17256   0.18541   0.23651   0.25111
     Eigenvalues ---    0.25497   0.25783   0.27239   0.27258   0.27811
     Eigenvalues ---    0.29813   0.32295   0.32295   0.32375   0.32375
     Eigenvalues ---    0.32405   0.32406   0.32434   0.32435   0.32508
     Eigenvalues ---    0.32508   0.35400   0.35400   0.50607
 RFO step:  Lambda=-8.82115688D-03 EMin= 3.00590904D-03
 Linear search not attempted -- first point.
 Iteration  1 RMS(Cart)=  0.02351517 RMS(Int)=  0.00028783
 Iteration  2 RMS(Cart)=  0.00035963 RMS(Int)=  0.00006919
 Iteration  3 RMS(Cart)=  0.00000006 RMS(Int)=  0.00006919
 Variable       Old X    -DE/DX   Delta X   Delta X   Delta X     New X
                                 (Linear)    (Quad)   (Total)
    R1        2.54128  -0.01012   0.00000  -0.01759  -0.01769   2.52358
    R2        2.86912  -0.01479   0.00000  -0.04696  -0.04700   2.82212
    R3        2.05031   0.00328   0.00000   0.00903   0.00903   2.05934
    R4        2.86912  -0.01479   0.00000  -0.04696  -0.04700   2.82211
    R5        2.05031   0.00328   0.00000   0.00903   0.00903   2.05934
    R6        2.93366  -0.01247   0.00000  -0.04296  -0.04298   2.89067
    R7        2.93616  -0.01178   0.00000  -0.04280  -0.04275   2.89341
    R8        2.09924  -0.00134   0.00000  -0.00400  -0.00400   2.09524
    R9        2.93618  -0.01179   0.00000  -0.04281  -0.04276   2.89341
   R10        2.93365  -0.01246   0.00000  -0.04296  -0.04298   2.89067
   R11        2.09924  -0.00134   0.00000  -0.00401  -0.00401   2.09524
   R12        2.95526  -0.01894   0.00000  -0.06942  -0.06936   2.88590
   R13        2.10109  -0.00547   0.00000  -0.01642  -0.01642   2.08467
   R14        2.10163  -0.00500   0.00000  -0.01502  -0.01502   2.08661
   R15        2.10307  -0.00503   0.00000  -0.01515  -0.01515   2.08792
   R16        2.10057  -0.00547   0.00000  -0.01643  -0.01643   2.08414
   R17        2.95527  -0.01894   0.00000  -0.06943  -0.06937   2.88590
   R18        2.10163  -0.00500   0.00000  -0.01502  -0.01502   2.08661
   R19        2.10107  -0.00546   0.00000  -0.01640  -0.01640   2.08467
   R20        2.10307  -0.00503   0.00000  -0.01516  -0.01516   2.08792
   R21        2.10056  -0.00547   0.00000  -0.01643  -0.01643   2.08414
    A1        2.00788  -0.00152   0.00000  -0.01599  -0.01598   1.99189
    A2        2.13327   0.00559   0.00000   0.03663   0.03662   2.16989
    A3        2.14197  -0.00407   0.00000  -0.02061  -0.02062   2.12135
    A4        2.00788  -0.00153   0.00000  -0.01600  -0.01598   1.99190
    A5        2.13327   0.00559   0.00000   0.03663   0.03662   2.16989
    A6        2.14197  -0.00407   0.00000  -0.02061  -0.02062   2.12135
    A7        1.87668   0.00118   0.00000   0.01174   0.01161   1.88829
    A8        1.85201   0.00104   0.00000   0.01283   0.01270   1.86471
    A9        1.95942  -0.00093   0.00000  -0.00784  -0.00781   1.95161
   A10        1.87853   0.00071   0.00000   0.00895   0.00874   1.88727
   A11        1.95100  -0.00106   0.00000  -0.01559  -0.01552   1.93547
   A12        1.94113  -0.00072   0.00000  -0.00750  -0.00745   1.93368
   A13        1.85201   0.00104   0.00000   0.01283   0.01270   1.86471
   A14        1.87668   0.00118   0.00000   0.01174   0.01161   1.88830
   A15        1.95942  -0.00093   0.00000  -0.00784  -0.00781   1.95161
   A16        1.87853   0.00071   0.00000   0.00895   0.00874   1.88727
   A17        1.94113  -0.00072   0.00000  -0.00749  -0.00745   1.93368
   A18        1.95099  -0.00106   0.00000  -0.01558  -0.01552   1.93547
   A19        1.91978  -0.00042   0.00000  -0.00490  -0.00481   1.91497
   A20        1.93111  -0.00027   0.00000  -0.00383  -0.00382   1.92729
   A21        1.90166   0.00026   0.00000   0.00508   0.00502   1.90668
   A22        1.90786   0.00120   0.00000   0.01495   0.01492   1.92277
   A23        1.92551   0.00021   0.00000   0.00260   0.00259   1.92810
   A24        1.87757  -0.00099   0.00000  -0.01408  -0.01408   1.86349
   A25        1.92141  -0.00079   0.00000  -0.01028  -0.01024   1.91117
   A26        1.88777   0.00103   0.00000   0.01960   0.01954   1.90731
   A27        1.94654  -0.00087   0.00000  -0.01641  -0.01644   1.93010
   A28        1.90859   0.00100   0.00000   0.01568   0.01564   1.92422
   A29        1.92461   0.00064   0.00000   0.00383   0.00354   1.92815
   A30        1.87366  -0.00096   0.00000  -0.01136  -0.01126   1.86239
   A31        1.91977  -0.00042   0.00000  -0.00489  -0.00480   1.91497
   A32        1.90167   0.00026   0.00000   0.00507   0.00501   1.90668
   A33        1.93111  -0.00027   0.00000  -0.00383  -0.00382   1.92729
   A34        1.92550   0.00021   0.00000   0.00261   0.00259   1.92809
   A35        1.90785   0.00120   0.00000   0.01495   0.01492   1.92277
   A36        1.87758  -0.00099   0.00000  -0.01409  -0.01409   1.86349
   A37        1.92141  -0.00079   0.00000  -0.01029  -0.01024   1.91117
   A38        1.88777   0.00103   0.00000   0.01960   0.01954   1.90731
   A39        1.94655  -0.00087   0.00000  -0.01641  -0.01644   1.93011
   A40        1.90858   0.00100   0.00000   0.01568   0.01564   1.92422
   A41        1.92461   0.00064   0.00000   0.00383   0.00354   1.92815
   A42        1.87365  -0.00096   0.00000  -0.01136  -0.01126   1.86239
    D1        0.01969   0.00017   0.00000   0.00097   0.00097   0.02066
    D2       -3.13399   0.00009   0.00000   0.00262   0.00264  -3.13135
    D3       -3.13400   0.00009   0.00000   0.00262   0.00265  -3.13135
    D4       -0.00449   0.00002   0.00000   0.00427   0.00432  -0.00018
    D5       -1.00653  -0.00104   0.00000  -0.01034  -0.01040  -1.01693
    D6        0.99976   0.00083   0.00000   0.01159   0.01164   1.01140
    D7        3.12370   0.00007   0.00000   0.00617   0.00614   3.12984
    D8        2.14722  -0.00104   0.00000  -0.01244  -0.01246   2.13476
    D9       -2.12967   0.00083   0.00000   0.00949   0.00958  -2.12010
   D10       -0.00574   0.00008   0.00000   0.00407   0.00408  -0.00166
   D11        0.99976   0.00083   0.00000   0.01159   0.01164   1.01140
   D12       -1.00653  -0.00104   0.00000  -0.01034  -0.01039  -1.01693
   D13        3.12370   0.00007   0.00000   0.00617   0.00614   3.12984
   D14       -2.12967   0.00083   0.00000   0.00949   0.00958  -2.12010
   D15        2.14722  -0.00104   0.00000  -0.01244  -0.01245   2.13476
   D16       -0.00574   0.00008   0.00000   0.00407   0.00408  -0.00166
   D17        0.90182   0.00118   0.00000   0.01424   0.01430   0.91612
   D18       -1.20785   0.00013   0.00000   0.00126   0.00130  -1.20655
   D19        3.01454   0.00134   0.00000   0.01762   0.01766   3.03221
   D20       -1.08678  -0.00094   0.00000  -0.01068  -0.01072  -1.09750
   D21        3.08674  -0.00199   0.00000  -0.02367  -0.02372   3.06301
   D22        1.02594  -0.00078   0.00000  -0.00731  -0.00736   1.01859
   D23        3.05992   0.00014   0.00000   0.00245   0.00245   3.06237
   D24        0.95025  -0.00091   0.00000  -0.01053  -0.01055   0.93970
   D25       -1.11054   0.00029   0.00000   0.00582   0.00581  -1.10473
   D26       -0.99823  -0.00186   0.00000  -0.01834  -0.01842  -1.01665
   D27        1.08619  -0.00049   0.00000   0.00655   0.00650   1.09269
   D28       -3.14049  -0.00152   0.00000  -0.00469  -0.00488   3.13782
   D29        1.00680   0.00033   0.00000   0.00552   0.00556   1.01236
   D30        3.09122   0.00170   0.00000   0.03041   0.03048   3.12170
   D31       -1.13546   0.00067   0.00000   0.01917   0.01910  -1.11636
   D32       -3.13382  -0.00096   0.00000  -0.01259  -0.01258   3.13678
   D33       -1.04940   0.00041   0.00000   0.01230   0.01234  -1.03707
   D34        1.00710  -0.00062   0.00000   0.00106   0.00096   1.00806
   D35       -0.99823  -0.00186   0.00000  -0.01834  -0.01842  -1.01665
   D36        1.08619  -0.00049   0.00000   0.00655   0.00650   1.09270
   D37       -3.14049  -0.00152   0.00000  -0.00470  -0.00488   3.13782
   D38        1.00680   0.00033   0.00000   0.00552   0.00556   1.01236
   D39        3.09122   0.00170   0.00000   0.03041   0.03048   3.12170
   D40       -1.13546   0.00067   0.00000   0.01917   0.01910  -1.11636
   D41       -3.13383  -0.00096   0.00000  -0.01259  -0.01258   3.13678
   D42       -1.04941   0.00041   0.00000   0.01230   0.01234  -1.03706
   D43        1.00710  -0.00062   0.00000   0.00106   0.00096   1.00806
   D44        0.90182   0.00118   0.00000   0.01424   0.01430   0.91612
   D45        3.01453   0.00134   0.00000   0.01762   0.01767   3.03220
   D46       -1.20784   0.00013   0.00000   0.00125   0.00129  -1.20655
   D47       -1.08678  -0.00094   0.00000  -0.01068  -0.01072  -1.09750
   D48        1.02593  -0.00078   0.00000  -0.00730  -0.00735   1.01858
   D49        3.08675  -0.00199   0.00000  -0.02367  -0.02373   3.06302
   D50        3.05993   0.00014   0.00000   0.00245   0.00245   3.06238
   D51       -1.11055   0.00029   0.00000   0.00583   0.00582  -1.10473
   D52        0.95027  -0.00091   0.00000  -0.01054  -0.01056   0.93971
   D53        0.06876   0.00040   0.00000   0.00176   0.00172   0.07048
   D54       -2.00294  -0.00099   0.00000  -0.02558  -0.02563  -2.02857
   D55        2.22387  -0.00080   0.00000  -0.02344  -0.02349   2.20037
   D56        2.19235   0.00057   0.00000   0.00351   0.00351   2.19586
   D57        0.12065  -0.00083   0.00000  -0.02382  -0.02384   0.09681
   D58       -1.93573  -0.00064   0.00000  -0.02169  -0.02170  -1.95743
   D59       -2.02959   0.00021   0.00000  -0.00307  -0.00308  -2.03266
   D60        2.18189  -0.00118   0.00000  -0.03040  -0.03042   2.15147
   D61        0.12552  -0.00099   0.00000  -0.02827  -0.02829   0.09723
   D62        0.06876   0.00040   0.00000   0.00176   0.00172   0.07048
   D63       -2.00294  -0.00099   0.00000  -0.02558  -0.02563  -2.02857
   D64        2.22388  -0.00080   0.00000  -0.02345  -0.02350   2.20038
   D65       -2.02958   0.00021   0.00000  -0.00306  -0.00307  -2.03266
   D66        2.18190  -0.00118   0.00000  -0.03040  -0.03042   2.15147
   D67        0.12553  -0.00099   0.00000  -0.02827  -0.02829   0.09724
   D68        2.19234   0.00057   0.00000   0.00352   0.00352   2.19586
   D69        0.12064  -0.00083   0.00000  -0.02382  -0.02383   0.09681
   D70       -1.93573  -0.00064   0.00000  -0.02169  -0.02170  -1.95743
         Item               Value     Threshold  Converged?
 Maximum Force            0.018939     0.000450     NO 
 RMS     Force            0.004138     0.000300     NO 
 Maximum Displacement     0.074075     0.001800     NO 
 RMS     Displacement     0.023685     0.001200     NO 
 Predicted change in Energy=-4.630536D-03
 GradGradGradGradGradGradGradGradGradGradGradGradGradGradGradGradGradGrad

                          Input orientation:                          
 ---------------------------------------------------------------------
 Center     Atomic      Atomic             Coordinates (Angstroms)
 Number     Number       Type             X           Y           Z
 ---------------------------------------------------------------------
      1          6           0       -1.798741    3.604982    0.615114
      2          6           0       -1.795011    2.280893    0.441535
      3          6           0       -0.635511    4.305431   -0.006585
      4          6           0       -0.614004    1.767703   -0.314837
      5          6           0        0.647020    3.724026    0.590908
      6          6           0        0.632525    2.202505    0.460708
      7          1           0        0.743931    4.014128    1.650820
      8          1           0        1.519261    4.148471    0.063394
      9          1           0        0.622070    1.733188    1.460901
     10          1           0        1.546760    1.849895   -0.045432
     11          6           0       -0.587538    2.453669   -1.681827
     12          1           0       -0.643454    0.664959   -0.426278
     13          6           0       -0.661058    3.968162   -1.499886
     14          1           0        0.339468    2.172955   -2.212004
     15          1           0       -1.428543    2.104132   -2.304320
     16          1           0       -1.591333    4.362330   -1.947070
     17          1           0        0.175661    4.460637   -2.023056
     18          1           0       -0.683026    5.402026    0.150105
     19          1           0       -2.574509    4.152453    1.149926
     20          1           0       -2.567266    1.609766    0.816734
 ---------------------------------------------------------------------
                    Distance matrix (angstroms):
                    1          2          3          4          5
     1  C    0.000000
     2  C    1.335423   0.000000
     3  C    1.493399   2.375711   0.000000
     4  C    2.375711   1.493399   2.556471   0.000000
     5  C    2.448776   2.840503   1.529678   2.497549   0.000000
     6  C    2.811021   2.428877   2.499715   1.531129   1.527150
     7  H    2.775836   3.303437   2.175938   3.279363   1.103161
     8  H    3.407185   3.822988   2.161614   3.218996   1.104187
     9  H    3.174791   2.679808   3.217368   2.163866   2.172773
    10  H    3.835235   3.404458   3.285342   2.179045   2.174127
    11  C    2.840505   2.448777   2.497551   1.529678   2.881538
    12  H    3.326097   2.165739   3.664593   1.108752   3.472446
    13  C    2.428877   2.811021   1.531128   2.499715   2.478324
    14  H    3.822987   3.407186   3.218992   2.161615   3.218186
    15  H    3.303436   2.775836   3.279361   2.175938   3.913357
    16  H    2.679810   3.174791   2.163867   3.217367   3.443689
    17  H    3.404460   3.835236   2.179047   3.285343   2.756371
    18  H    2.165738   3.326095   1.108752   3.664593   2.186096
    19  H    1.089754   2.147596   2.262881   3.417037   3.297620
    20  H    2.147596   1.089754   3.417037   2.262881   3.853923
                    6          7          8          9         10
     6  C    0.000000
     7  H    2.170428   0.000000
     8  H    2.175073   1.771752   0.000000
     9  H    1.104877   2.292075   2.931137   0.000000
    10  H    1.102877   2.864561   2.301315   1.771359   0.000000
    11  C    2.478325   3.913359   3.218191   3.443688   2.756368
    12  H    2.186073   4.178051   4.129403   2.510799   2.519158
    13  C    2.938507   3.450080   2.688893   3.925275   3.387765
    14  H    2.688892   4.298246   3.236048   3.709917   2.501191
    15  H    3.450081   4.900088   4.298248   4.303430   3.744281
    16  H    3.925275   4.303431   3.709919   4.840022   4.447043
    17  H    3.387767   3.744284   2.501196   4.447045   3.550617
    18  H    3.473339   2.492912   2.535545   4.108751   4.198550
    19  H    3.816069   3.358879   4.235507   4.020904   4.869858
    20  H    3.273645   4.176204   4.869522   3.256079   4.210250
                   11         12         13         14         15
    11  C    0.000000
    12  H    2.186096   0.000000
    13  C    1.527152   3.473340   0.000000
    14  H    1.104187   2.535548   2.175070   0.000000
    15  H    1.103160   2.492915   2.170427   1.771757   0.000000
    16  H    2.172773   4.108751   1.104878   2.931134   2.292070
    17  H    2.174127   4.198550   1.102877   2.301309   2.864558
    18  H    3.472449   4.772168   2.186074   4.129401   4.178050
    19  H    3.853926   4.286724   3.273646   4.869522   4.176203
    20  H    3.297621   2.477658   3.816070   4.235509   3.358879
                   16         17         18         19         20
    16  H    0.000000
    17  H    1.771358   0.000000
    18  H    2.510803   2.519164   0.000000
    19  H    3.256082   4.210252   2.477656   0.000000
    20  H    4.020904   4.869859   4.286723   2.564435   0.000000
 Symmetry turned off by external request.
 Stoichiometry    C8H12
 Framework group  C1[X(C8H12)]
 Deg. of freedom    54
 Full point group                 C1      NOp   1
 Rotational constants (GHZ):      2.6327996      2.5684902      2.5035444
 Standard basis: VSTO-6G (5D, 7F)
 Integral buffers will be    131072 words long.
 Regular integral format.
 Two-electron integral symmetry is turned off.
    44 basis functions,   264 primitive gaussians,    44 cartesian basis functions
    22 alpha electrons       22 beta electrons
       nuclear repulsion energy       223.2248311893 Hartrees.
 Do NDO integrals.
 One-electron integrals computed using PRISM.
 NBasis=    44 RedAO= F  NBF=    44
 NBsUse=    44 1.00D-04 NBFU=    44
 Initial guess read from the read-write file.
 B after Tr=     0.000000    0.000000    0.000000
         Rot=    1.000000    0.000000    0.000000    0.000000 Ang=   0.00 deg.
 Requested convergence on RMS density matrix=1.00D-08 within 128 cycles.
 Requested convergence on MAX density matrix=1.00D-06.
 Requested convergence on             energy=1.00D-06.
 No special actions if energy rises.
 Overlap will be assumed to be unity.
 Keep J ints in memory in canonical form, NReq=887705.
 SCF Done:  E(RPM3) =  0.355317151636E-02 A.U. after   10 cycles
             Convg  =    0.5378D-08             -V/T =  1.0001
 Calling FoFJK, ICntrl=      2127 FMM=F ISym2X=0 I1Cent= 0 IOpClX= 0 NMat=1 NMatS=1 NMatT=0.
 -------------------------------------------------------------------
 Center     Atomic                   Forces (Hartrees/Bohr)
 Number     Number              X              Y              Z
 -------------------------------------------------------------------
      1        6          -0.006703167    0.002681081    0.004461243
      2        6          -0.006776632   -0.003757879    0.003462599
      3        6           0.000594979    0.005530252   -0.000169891
      4        6           0.001087519   -0.005396270   -0.000818548
      5        6           0.003316665    0.000272352    0.001708066
      6        6           0.002884474   -0.000832627    0.002844722
      7        1           0.000552106    0.001686911    0.001017007
      8        1           0.001776925    0.001322248    0.000686954
      9        1           0.001457815   -0.001338189    0.000426204
     10        1           0.001310198   -0.001761083   -0.000521989
     11        6           0.000136826    0.000005620   -0.003736837
     12        1          -0.000070698   -0.002051935   -0.000406520
     13        6          -0.001190408    0.000966900   -0.003842182
     14        1           0.000410347   -0.001148093   -0.001973121
     15        1          -0.000420423   -0.001676836   -0.001094875
     16        1           0.000170255    0.001468265   -0.001382771
     17        1           0.000874058    0.001935725   -0.000761630
     18        1           0.000077289    0.002052605    0.000402444
     19        1           0.000269967    0.001651124    0.000095080
     20        1           0.000241905   -0.001610171   -0.000395956
 -------------------------------------------------------------------
 Cartesian Forces:  Max     0.006776632 RMS     0.002309670

 GradGradGradGradGradGradGradGradGradGradGradGradGradGradGradGradGradGrad
 Berny optimization.
 Using GEDIIS/GDIIS optimizer.
 Internal  Forces:  Max     0.007991256 RMS     0.001944860
 Search for a local minimum.
 Step number   2 out of a maximum of  120
 All quantities printed in internal units (Hartrees-Bohrs-Radians)
 Mixed Optimization -- RFO/linear search
 Update second derivatives using D2CorX and points    1    2
 DE= -3.33D-03 DEPred=-4.63D-03 R= 7.18D-01
 SS=  1.41D+00  RLast= 2.21D-01 DXNew= 5.0454D-01 6.6179D-01
 Trust test= 7.18D-01 RLast= 2.21D-01 DXMaxT set to 5.05D-01
 ITU=  1  0
 Use linear search instead of GDIIS.
     Eigenvalues ---    0.00299   0.00521   0.01114   0.01591   0.01810
     Eigenvalues ---    0.01857   0.02028   0.03179   0.03516   0.04193
     Eigenvalues ---    0.04385   0.04698   0.04869   0.04950   0.05070
     Eigenvalues ---    0.05116   0.05316   0.07129   0.07528   0.07750
     Eigenvalues ---    0.07760   0.07782   0.07790   0.07873   0.08583
     Eigenvalues ---    0.08785   0.09435   0.11289   0.12939   0.15348
     Eigenvalues ---    0.15999   0.17228   0.18486   0.23615   0.25397
     Eigenvalues ---    0.25407   0.25695   0.27242   0.27733   0.27849
     Eigenvalues ---    0.32015   0.32295   0.32299   0.32375   0.32388
     Eigenvalues ---    0.32402   0.32405   0.32434   0.32439   0.32508
     Eigenvalues ---    0.35286   0.35400   0.41130   0.54874
 RFO step:  Lambda=-1.02069371D-03 EMin= 2.99127968D-03
 Quartic linear search produced a step of -0.20589.
 Iteration  1 RMS(Cart)=  0.02344756 RMS(Int)=  0.00031705
 Iteration  2 RMS(Cart)=  0.00036932 RMS(Int)=  0.00007310
 Iteration  3 RMS(Cart)=  0.00000005 RMS(Int)=  0.00007310
 Variable       Old X    -DE/DX   Delta X   Delta X   Delta X     New X
                                 (Linear)    (Quad)   (Total)
    R1        2.52358   0.00762   0.00364   0.00663   0.01029   2.53387
    R2        2.82212   0.00799   0.00968   0.00730   0.01699   2.83910
    R3        2.05934   0.00068  -0.00186   0.00423   0.00237   2.06171
    R4        2.82211   0.00799   0.00968   0.00730   0.01699   2.83910
    R5        2.05934   0.00068  -0.00186   0.00423   0.00237   2.06171
    R6        2.89067   0.00689   0.00885   0.00612   0.01495   2.90563
    R7        2.89341   0.00686   0.00880   0.00672   0.01553   2.90894
    R8        2.09524   0.00208   0.00082   0.00385   0.00468   2.09992
    R9        2.89341   0.00686   0.00880   0.00671   0.01553   2.90894
   R10        2.89067   0.00689   0.00885   0.00612   0.01495   2.90563
   R11        2.09524   0.00208   0.00082   0.00385   0.00468   2.09992
   R12        2.88590   0.00604   0.01428  -0.00435   0.00992   2.89581
   R13        2.08467   0.00147   0.00338  -0.00137   0.00201   2.08669
   R14        2.08661   0.00158   0.00309  -0.00066   0.00243   2.08904
   R15        2.08792   0.00094   0.00312  -0.00226   0.00085   2.08877
   R16        2.08414   0.00189   0.00338  -0.00035   0.00303   2.08717
   R17        2.88590   0.00604   0.01428  -0.00436   0.00991   2.89581
   R18        2.08661   0.00158   0.00309  -0.00066   0.00243   2.08904
   R19        2.08467   0.00147   0.00338  -0.00136   0.00202   2.08669
   R20        2.08792   0.00094   0.00312  -0.00227   0.00085   2.08877
   R21        2.08414   0.00189   0.00338  -0.00035   0.00303   2.08717
    A1        1.99189  -0.00059   0.00329  -0.00639  -0.00320   1.98869
    A2        2.16989   0.00187  -0.00754   0.02005   0.01252   2.18241
    A3        2.12135  -0.00128   0.00425  -0.01353  -0.00927   2.11208
    A4        1.99190  -0.00059   0.00329  -0.00639  -0.00320   1.98869
    A5        2.16989   0.00187  -0.00754   0.02005   0.01252   2.18241
    A6        2.12135  -0.00128   0.00425  -0.01353  -0.00927   2.11208
    A7        1.88829   0.00026  -0.00239   0.00155  -0.00084   1.88746
    A8        1.86471   0.00035  -0.00261   0.01056   0.00795   1.87267
    A9        1.95161  -0.00033   0.00161  -0.00357  -0.00198   1.94963
   A10        1.88727  -0.00017  -0.00180   0.00384   0.00201   1.88927
   A11        1.93547  -0.00010   0.00320  -0.00877  -0.00554   1.92993
   A12        1.93368   0.00001   0.00153  -0.00261  -0.00105   1.93264
   A13        1.86471   0.00035  -0.00261   0.01056   0.00796   1.87266
   A14        1.88830   0.00026  -0.00239   0.00155  -0.00084   1.88746
   A15        1.95161  -0.00033   0.00161  -0.00357  -0.00198   1.94963
   A16        1.88727  -0.00017  -0.00180   0.00384   0.00200   1.88927
   A17        1.93368   0.00001   0.00153  -0.00261  -0.00105   1.93263
   A18        1.93547  -0.00010   0.00320  -0.00877  -0.00554   1.92993
   A19        1.91497   0.00013   0.00099  -0.00248  -0.00175   1.91323
   A20        1.92729  -0.00034   0.00079  -0.00450  -0.00368   1.92360
   A21        1.90668   0.00004  -0.00103   0.00496   0.00404   1.91072
   A22        1.92277   0.00077  -0.00307   0.01280   0.00986   1.93264
   A23        1.92810   0.00011  -0.00053   0.00484   0.00433   1.93242
   A24        1.86349  -0.00073   0.00290  -0.01590  -0.01304   1.85044
   A25        1.91117   0.00004   0.00211  -0.00377  -0.00190   1.90928
   A26        1.90731   0.00006  -0.00402   0.01169   0.00775   1.91506
   A27        1.93010  -0.00034   0.00338  -0.01148  -0.00805   1.92205
   A28        1.92422   0.00052  -0.00322   0.01222   0.00902   1.93324
   A29        1.92815   0.00042  -0.00073   0.00572   0.00512   1.93327
   A30        1.86239  -0.00072   0.00232  -0.01429  -0.01202   1.85037
   A31        1.91497   0.00013   0.00099  -0.00247  -0.00175   1.91323
   A32        1.90668   0.00004  -0.00103   0.00495   0.00404   1.91072
   A33        1.92729  -0.00034   0.00079  -0.00450  -0.00368   1.92361
   A34        1.92809   0.00011  -0.00053   0.00485   0.00433   1.93242
   A35        1.92277   0.00077  -0.00307   0.01280   0.00987   1.93263
   A36        1.86349  -0.00073   0.00290  -0.01590  -0.01305   1.85044
   A37        1.91117   0.00004   0.00211  -0.00377  -0.00190   1.90927
   A38        1.90731   0.00006  -0.00402   0.01168   0.00775   1.91506
   A39        1.93011  -0.00034   0.00339  -0.01148  -0.00806   1.92205
   A40        1.92422   0.00052  -0.00322   0.01223   0.00902   1.93324
   A41        1.92815   0.00042  -0.00073   0.00572   0.00512   1.93327
   A42        1.86239  -0.00072   0.00232  -0.01429  -0.01202   1.85037
    D1        0.02066   0.00003  -0.00020  -0.01870  -0.01885   0.00181
    D2       -3.13135   0.00003  -0.00054  -0.00526  -0.00568  -3.13703
    D3       -3.13135   0.00003  -0.00054  -0.00526  -0.00568  -3.13703
    D4       -0.00018   0.00003  -0.00089   0.00817   0.00748   0.00731
    D5       -1.01693  -0.00007   0.00214   0.00247   0.00468  -1.01224
    D6        1.01140   0.00004  -0.00240   0.01316   0.01073   1.02213
    D7        3.12984   0.00008  -0.00126   0.01471   0.01346  -3.13989
    D8        2.13476  -0.00009   0.00256  -0.01077  -0.00804   2.12672
    D9       -2.12010   0.00002  -0.00197  -0.00008  -0.00199  -2.12209
   D10       -0.00166   0.00006  -0.00084   0.00147   0.00073  -0.00092
   D11        1.01140   0.00004  -0.00240   0.01316   0.01073   1.02213
   D12       -1.01693  -0.00007   0.00214   0.00247   0.00468  -1.01224
   D13        3.12984   0.00008  -0.00126   0.01471   0.01346  -3.13989
   D14       -2.12010   0.00002  -0.00197  -0.00008  -0.00199  -2.12209
   D15        2.13476  -0.00009   0.00256  -0.01077  -0.00804   2.12673
   D16       -0.00166   0.00006  -0.00084   0.00147   0.00074  -0.00092
   D17        0.91612   0.00053  -0.00294   0.03072   0.02780   0.94392
   D18       -1.20655  -0.00030  -0.00027   0.01928   0.01902  -1.18753
   D19        3.03221   0.00077  -0.00364   0.03827   0.03460   3.06681
   D20       -1.09750   0.00007   0.00221   0.01553   0.01784  -1.07965
   D21        3.06301  -0.00076   0.00488   0.00409   0.00907   3.07208
   D22        1.01859   0.00031   0.00152   0.02308   0.02464   1.04323
   D23        3.06237   0.00023  -0.00050   0.02170   0.02127   3.08364
   D24        0.93970  -0.00059   0.00217   0.01026   0.01249   0.95219
   D25       -1.10473   0.00047  -0.00120   0.02925   0.02807  -1.07666
   D26       -1.01665  -0.00042   0.00379   0.01694   0.02078  -0.99587
   D27        1.09269   0.00028  -0.00134   0.03689   0.03557   1.12827
   D28        3.13782  -0.00076   0.00100   0.01978   0.02086  -3.12451
   D29        1.01236  -0.00002  -0.00115   0.02610   0.02494   1.03730
   D30        3.12170   0.00068  -0.00628   0.04605   0.03974  -3.12174
   D31       -1.11636  -0.00036  -0.00393   0.02894   0.02502  -1.09134
   D32        3.13678  -0.00025   0.00259   0.01613   0.01874  -3.12766
   D33       -1.03707   0.00045  -0.00254   0.03607   0.03354  -1.00353
   D34        1.00806  -0.00058  -0.00020   0.01896   0.01882   1.02688
   D35       -1.01665  -0.00042   0.00379   0.01694   0.02078  -0.99587
   D36        1.09270   0.00028  -0.00134   0.03689   0.03557   1.12827
   D37        3.13782  -0.00076   0.00100   0.01978   0.02085  -3.12451
   D38        1.01236  -0.00002  -0.00115   0.02610   0.02494   1.03730
   D39        3.12170   0.00068  -0.00628   0.04604   0.03974  -3.12174
   D40       -1.11636  -0.00036  -0.00393   0.02893   0.02502  -1.09134
   D41        3.13678  -0.00025   0.00259   0.01613   0.01874  -3.12766
   D42       -1.03706   0.00045  -0.00254   0.03607   0.03354  -1.00353
   D43        1.00806  -0.00058  -0.00020   0.01896   0.01882   1.02688
   D44        0.91612   0.00053  -0.00294   0.03072   0.02780   0.94392
   D45        3.03220   0.00077  -0.00364   0.03828   0.03460   3.06680
   D46       -1.20655  -0.00030  -0.00027   0.01928   0.01902  -1.18753
   D47       -1.09750   0.00007   0.00221   0.01553   0.01784  -1.07965
   D48        1.01858   0.00031   0.00151   0.02309   0.02465   1.04323
   D49        3.06302  -0.00076   0.00489   0.00409   0.00906   3.07208
   D50        3.06238   0.00023  -0.00050   0.02170   0.02127   3.08365
   D51       -1.10473   0.00047  -0.00120   0.02926   0.02807  -1.07666
   D52        0.93971  -0.00059   0.00217   0.01026   0.01249   0.95220
   D53        0.07048  -0.00008  -0.00035  -0.03553  -0.03580   0.03468
   D54       -2.02857  -0.00050   0.00528  -0.05523  -0.04990  -2.07847
   D55        2.20037  -0.00020   0.00484  -0.04866  -0.04381   2.15657
   D56        2.19586   0.00008  -0.00072  -0.03445  -0.03514   2.16073
   D57        0.09681  -0.00034   0.00491  -0.05415  -0.04923   0.04758
   D58       -1.95743  -0.00004   0.00447  -0.04758  -0.04314  -2.00057
   D59       -2.03266  -0.00028   0.00063  -0.04318  -0.04246  -2.07512
   D60        2.15147  -0.00071   0.00626  -0.06287  -0.05656   2.09491
   D61        0.09723  -0.00041   0.00582  -0.05630  -0.05046   0.04677
   D62        0.07048  -0.00008  -0.00035  -0.03553  -0.03580   0.03468
   D63       -2.02857  -0.00050   0.00528  -0.05523  -0.04990  -2.07847
   D64        2.20038  -0.00020   0.00484  -0.04866  -0.04381   2.15657
   D65       -2.03266  -0.00028   0.00063  -0.04318  -0.04246  -2.07512
   D66        2.15147  -0.00071   0.00626  -0.06287  -0.05656   2.09491
   D67        0.09724  -0.00041   0.00582  -0.05631  -0.05047   0.04677
   D68        2.19586   0.00008  -0.00072  -0.03445  -0.03513   2.16073
   D69        0.09681  -0.00034   0.00491  -0.05415  -0.04923   0.04758
   D70       -1.95743  -0.00004   0.00447  -0.04758  -0.04314  -2.00057
         Item               Value     Threshold  Converged?
 Maximum Force            0.007991     0.000450     NO 
 RMS     Force            0.001945     0.000300     NO 
 Maximum Displacement     0.098080     0.001800     NO 
 RMS     Displacement     0.023462     0.001200     NO 
 Predicted change in Energy=-7.287971D-04
 GradGradGradGradGradGradGradGradGradGradGradGradGradGradGradGradGradGrad

                          Input orientation:                          
 ---------------------------------------------------------------------
 Center     Atomic      Atomic             Coordinates (Angstroms)
 Number     Number       Type             X           Y           Z
 ---------------------------------------------------------------------
      1          6           0       -1.815324    3.607688    0.614570
      2          6           0       -1.802168    2.276290    0.456033
      3          6           0       -0.641019    4.307563   -0.008610
      4          6           0       -0.614631    1.765080   -0.309205
      5          6           0        0.643356    3.729737    0.608387
      6          6           0        0.646673    2.204961    0.455784
      7          1           0        0.718011    4.016278    1.672172
      8          1           0        1.524151    4.174597    0.110019
      9          1           0        0.673972    1.712171    1.444807
     10          1           0        1.552348    1.866793   -0.078327
     11          6           0       -0.603821    2.446366   -1.687580
     12          1           0       -0.641973    0.659737   -0.420087
     13          6           0       -0.649705    3.967743   -1.509953
     14          1           0        0.304350    2.144412   -2.240861
     15          1           0       -1.459281    2.097455   -2.292367
     16          1           0       -1.554942    4.390401   -1.982878
     17          1           0        0.208944    4.446844   -2.013008
     18          1           0       -0.688317    5.406944    0.146151
     19          1           0       -2.588021    4.168027    1.143026
     20          1           0       -2.565902    1.593221    0.830775
 ---------------------------------------------------------------------
                    Distance matrix (angstroms):
                    1          2          3          4          5
     1  C    0.000000
     2  C    1.340869   0.000000
     3  C    1.502388   2.385420   0.000000
     4  C    2.385420   1.502388   2.560327   0.000000
     5  C    2.461715   2.848913   1.537592   2.506867   0.000000
     6  C    2.838007   2.449879   2.508934   1.539346   1.532397
     7  H    2.775474   3.295126   2.181018   3.281719   1.104227
     8  H    3.424624   3.845477   2.172490   3.248985   1.105473
     9  H    3.237108   2.725284   3.252335   2.177120   2.184286
    10  H    3.853834   3.421404   3.282236   2.181615   2.183667
    11  C    2.848913   2.461715   2.506866   1.537591   2.911006
    12  H    3.337317   2.174140   3.670960   1.111227   3.483494
    13  C    2.449879   2.838008   1.539346   2.508934   2.493195
    14  H    3.845476   3.424624   3.248983   2.172490   3.278169
    15  H    3.295126   2.775474   3.281718   2.181018   3.936979
    16  H    2.725285   3.237109   2.177120   3.252335   3.461741
    17  H    3.421404   3.853834   2.181616   3.282237   2.752211
    18  H    2.174139   3.337317   1.111227   3.670960   2.190899
    19  H    1.091011   2.160600   2.266396   3.431821   3.304502
    20  H    2.160600   1.091011   3.431821   2.266396   3.861800
                    6          7          8          9         10
     6  C    0.000000
     7  H    2.183017   0.000000
     8  H    2.183801   1.765007   0.000000
     9  H    1.105330   2.315716   2.927115   0.000000
    10  H    1.104481   2.894935   2.315648   1.765046   0.000000
    11  C    2.493195   3.936979   3.278171   3.461740   2.752211
    12  H    2.194418   4.182520   4.162612   2.513395   2.527612
    13  C    2.941448   3.463947   2.718961   3.945926   3.363418
    14  H    2.718960   4.357387   3.337094   3.729289   2.512194
    15  H    3.463947   4.913253   4.357390   4.320380   3.745008
    16  H    3.945926   4.320380   3.729290   4.887740   4.432963
    17  H    3.363418   3.745008   2.512196   4.432964   3.493478
    18  H    3.482925   2.498090   2.532785   4.146527   4.195669
    19  H    3.845669   3.351547   4.239942   4.094251   4.891833
    20  H    3.291729   4.166922   4.889941   3.299692   4.226262
                   11         12         13         14         15
    11  C    0.000000
    12  H    2.190900   0.000000
    13  C    1.532398   3.482926   0.000000
    14  H    1.105473   2.532786   2.183800   0.000000
    15  H    1.104228   2.498092   2.183017   1.765009   0.000000
    16  H    2.184286   4.146527   1.105330   2.927113   2.315715
    17  H    2.183667   4.195669   1.104481   2.315646   2.894935
    18  H    3.483494   4.781082   2.194418   4.162611   4.182520
    19  H    3.861800   4.305638   3.291730   4.889940   4.166923
    20  H    3.304503   2.477409   3.845670   4.239942   3.351549
                   16         17         18         19         20
    16  H    0.000000
    17  H    1.765046   0.000000
    18  H    2.513396   2.527614   0.000000
    19  H    3.299694   4.226263   2.477408   0.000000
    20  H    4.094252   4.891834   4.305638   2.593764   0.000000
 Symmetry turned off by external request.
 Stoichiometry    C8H12
 Framework group  C1[X(C8H12)]
 Deg. of freedom    54
 Full point group                 C1      NOp   1
 Rotational constants (GHZ):      2.6015212      2.5448677      2.4803982
 Standard basis: VSTO-6G (5D, 7F)
 Integral buffers will be    131072 words long.
 Regular integral format.
 Two-electron integral symmetry is turned off.
    44 basis functions,   264 primitive gaussians,    44 cartesian basis functions
    22 alpha electrons       22 beta electrons
       nuclear repulsion energy       222.5600479082 Hartrees.
 Do NDO integrals.
 One-electron integrals computed using PRISM.
 NBasis=    44 RedAO= F  NBF=    44
 NBsUse=    44 1.00D-04 NBFU=    44
 Initial guess read from the read-write file.
 B after Tr=     0.000000    0.000000    0.000000
         Rot=    1.000000    0.000000    0.000000    0.000000 Ang=   0.00 deg.
 Requested convergence on RMS density matrix=1.00D-08 within 128 cycles.
 Requested convergence on MAX density matrix=1.00D-06.
 Requested convergence on             energy=1.00D-06.
 No special actions if energy rises.
 Overlap will be assumed to be unity.
 Keep J ints in memory in canonical form, NReq=887705.
 SCF Done:  E(RPM3) =  0.278255456220E-02 A.U. after   10 cycles
             Convg  =    0.4873D-08             -V/T =  1.0001
 Calling FoFJK, ICntrl=      2127 FMM=F ISym2X=0 I1Cent= 0 IOpClX= 0 NMat=1 NMatS=1 NMatT=0.
 -------------------------------------------------------------------
 Center     Atomic                   Forces (Hartrees/Bohr)
 Number     Number              X              Y              Z
 -------------------------------------------------------------------
      1        6           0.000271959   -0.002640072    0.000753347
      2        6          -0.000836887    0.002594932   -0.000421261
      3        6          -0.000654678    0.000853994   -0.000584627
      4        6           0.000295806   -0.000882533    0.000795912
      5        6          -0.000576822   -0.000998977   -0.000786003
      6        6          -0.001338991    0.000854326   -0.000280270
      7        1          -0.000192422    0.000450738    0.000719583
      8        1           0.000689003    0.000445529    0.000094124
      9        1           0.000199002   -0.000298185    0.000205365
     10        1           0.000651644   -0.000628206   -0.000557191
     11        6           0.000288793    0.000976365    0.000955227
     12        1           0.000026913   -0.000312105    0.000084753
     13        6          -0.000297098   -0.000985393    0.001241774
     14        1           0.000301041   -0.000366648   -0.000676307
     15        1          -0.000664473   -0.000519259   -0.000215620
     16        1          -0.000118475    0.000304700   -0.000252661
     17        1           0.000722596    0.000738009   -0.000250568
     18        1          -0.000097692    0.000306468   -0.000043239
     19        1           0.000589510    0.000264496   -0.000491511
     20        1           0.000741272   -0.000158180   -0.000290825
 -------------------------------------------------------------------
 Cartesian Forces:  Max     0.002640072 RMS     0.000756444

 GradGradGradGradGradGradGradGradGradGradGradGradGradGradGradGradGradGrad
 Berny optimization.
 Using GEDIIS/GDIIS optimizer.
 Internal  Forces:  Max     0.001615060 RMS     0.000309881
 Search for a local minimum.
 Step number   3 out of a maximum of  120
 All quantities printed in internal units (Hartrees-Bohrs-Radians)
 Mixed Optimization -- En-DIIS/RFO-DIIS
 Update second derivatives using D2CorX and points    1    2    3
 DE= -7.71D-04 DEPred=-7.29D-04 R= 1.06D+00
 SS=  1.41D+00  RLast= 2.57D-01 DXNew= 8.4853D-01 7.6977D-01
 Trust test= 1.06D+00 RLast= 2.57D-01 DXMaxT set to 7.70D-01
 ITU=  1  1  0
 Use linear search instead of GDIIS.
     Eigenvalues ---    0.00261   0.00522   0.01126   0.01593   0.01822
     Eigenvalues ---    0.01865   0.02021   0.03165   0.03412   0.04203
     Eigenvalues ---    0.04416   0.04608   0.04794   0.04849   0.05059
     Eigenvalues ---    0.05114   0.05296   0.06998   0.07580   0.07770
     Eigenvalues ---    0.07774   0.07794   0.07804   0.07881   0.08633
     Eigenvalues ---    0.08878   0.09350   0.11306   0.12989   0.14716
     Eigenvalues ---    0.16000   0.17242   0.18489   0.23644   0.25414
     Eigenvalues ---    0.25538   0.25776   0.27250   0.27736   0.27968
     Eigenvalues ---    0.32250   0.32295   0.32368   0.32375   0.32386
     Eigenvalues ---    0.32405   0.32421   0.32434   0.32508   0.32759
     Eigenvalues ---    0.35400   0.35440   0.40924   0.59668
 RFO step:  Lambda=-1.25384658D-04 EMin= 2.60625281D-03
 Quartic linear search produced a step of  0.07980.
 Iteration  1 RMS(Cart)=  0.01302109 RMS(Int)=  0.00010022
 Iteration  2 RMS(Cart)=  0.00011369 RMS(Int)=  0.00002342
 Iteration  3 RMS(Cart)=  0.00000000 RMS(Int)=  0.00002342
 Variable       Old X    -DE/DX   Delta X   Delta X   Delta X     New X
                                 (Linear)    (Quad)   (Total)
    R1        2.53387  -0.00162   0.00082  -0.00369  -0.00286   2.53102
    R2        2.83910  -0.00011   0.00136  -0.00128   0.00008   2.83918
    R3        2.06171  -0.00052   0.00019  -0.00137  -0.00118   2.06054
    R4        2.83910  -0.00011   0.00136  -0.00128   0.00008   2.83918
    R5        2.06171  -0.00052   0.00019  -0.00137  -0.00118   2.06054
    R6        2.90563   0.00002   0.00119  -0.00098   0.00021   2.90584
    R7        2.90894  -0.00064   0.00124  -0.00226  -0.00103   2.90792
    R8        2.09992   0.00030   0.00037   0.00106   0.00143   2.10135
    R9        2.90894  -0.00064   0.00124  -0.00226  -0.00103   2.90792
   R10        2.90563   0.00002   0.00119  -0.00098   0.00021   2.90584
   R11        2.09992   0.00030   0.00037   0.00106   0.00143   2.10135
   R12        2.89581   0.00020   0.00079   0.00004   0.00083   2.89664
   R13        2.08669   0.00080   0.00016   0.00242   0.00258   2.08926
   R14        2.08904   0.00069   0.00019   0.00208   0.00227   2.09132
   R15        2.08877   0.00032   0.00007   0.00080   0.00087   2.08964
   R16        2.08717   0.00100   0.00024   0.00312   0.00336   2.09053
   R17        2.89581   0.00020   0.00079   0.00004   0.00083   2.89664
   R18        2.08904   0.00069   0.00019   0.00208   0.00227   2.09131
   R19        2.08669   0.00080   0.00016   0.00242   0.00258   2.08926
   R20        2.08877   0.00032   0.00007   0.00080   0.00087   2.08964
   R21        2.08717   0.00100   0.00024   0.00312   0.00336   2.09053
    A1        1.98869   0.00031  -0.00026   0.00171   0.00142   1.99011
    A2        2.18241   0.00047   0.00100   0.00438   0.00539   2.18780
    A3        2.11208  -0.00078  -0.00074  -0.00608  -0.00681   2.10528
    A4        1.98869   0.00031  -0.00026   0.00171   0.00142   1.99011
    A5        2.18241   0.00047   0.00100   0.00438   0.00539   2.18780
    A6        2.11208  -0.00078  -0.00074  -0.00608  -0.00680   2.10528
    A7        1.88746  -0.00027  -0.00007  -0.00584  -0.00591   1.88154
    A8        1.87267  -0.00002   0.00063   0.00347   0.00408   1.87675
    A9        1.94963   0.00017  -0.00016   0.00089   0.00073   1.95036
   A10        1.88927   0.00002   0.00016  -0.00116  -0.00102   1.88826
   A11        1.92993   0.00012  -0.00044   0.00167   0.00124   1.93116
   A12        1.93264  -0.00003  -0.00008   0.00081   0.00074   1.93337
   A13        1.87266  -0.00002   0.00063   0.00347   0.00408   1.87675
   A14        1.88746  -0.00027  -0.00007  -0.00584  -0.00591   1.88154
   A15        1.94963   0.00017  -0.00016   0.00089   0.00073   1.95036
   A16        1.88927   0.00002   0.00016  -0.00116  -0.00102   1.88826
   A17        1.93263  -0.00003  -0.00008   0.00081   0.00074   1.93337
   A18        1.92993   0.00012  -0.00044   0.00166   0.00124   1.93116
   A19        1.91323  -0.00008  -0.00014  -0.00009  -0.00034   1.91289
   A20        1.92360  -0.00016  -0.00029  -0.00469  -0.00494   1.91866
   A21        1.91072   0.00007   0.00032   0.00304   0.00338   1.91410
   A22        1.93264   0.00011   0.00079   0.00144   0.00225   1.93489
   A23        1.93242   0.00018   0.00035   0.00305   0.00341   1.93584
   A24        1.85044  -0.00012  -0.00104  -0.00281  -0.00387   1.84658
   A25        1.90928   0.00004  -0.00015   0.00234   0.00209   1.91136
   A26        1.91506  -0.00009   0.00062  -0.00007   0.00056   1.91562
   A27        1.92205  -0.00013  -0.00064  -0.00351  -0.00412   1.91793
   A28        1.93324  -0.00002   0.00072   0.00097   0.00173   1.93497
   A29        1.93327   0.00028   0.00041   0.00297   0.00340   1.93667
   A30        1.85037  -0.00009  -0.00096  -0.00291  -0.00389   1.84648
   A31        1.91323  -0.00008  -0.00014  -0.00009  -0.00033   1.91289
   A32        1.91072   0.00007   0.00032   0.00304   0.00338   1.91410
   A33        1.92361  -0.00016  -0.00029  -0.00469  -0.00495   1.91866
   A34        1.93242   0.00018   0.00035   0.00305   0.00342   1.93584
   A35        1.93263   0.00011   0.00079   0.00144   0.00225   1.93489
   A36        1.85044  -0.00012  -0.00104  -0.00281  -0.00387   1.84658
   A37        1.90927   0.00004  -0.00015   0.00234   0.00209   1.91136
   A38        1.91506  -0.00009   0.00062  -0.00007   0.00056   1.91562
   A39        1.92205  -0.00013  -0.00064  -0.00351  -0.00412   1.91793
   A40        1.93324  -0.00002   0.00072   0.00097   0.00173   1.93497
   A41        1.93327   0.00028   0.00041   0.00297   0.00340   1.93667
   A42        1.85037  -0.00009  -0.00096  -0.00291  -0.00389   1.84648
    D1        0.00181   0.00029  -0.00150   0.00300   0.00150   0.00331
    D2       -3.13703   0.00008  -0.00045  -0.00205  -0.00250  -3.13954
    D3       -3.13703   0.00008  -0.00045  -0.00205  -0.00251  -3.13954
    D4        0.00731  -0.00014   0.00060  -0.00709  -0.00651   0.00080
    D5       -1.01224  -0.00008   0.00037  -0.00443  -0.00404  -1.01628
    D6        1.02213  -0.00020   0.00086  -0.00697  -0.00614   1.01599
    D7       -3.13989  -0.00015   0.00107  -0.00315  -0.00207   3.14122
    D8        2.12672   0.00013  -0.00064   0.00041  -0.00022   2.12651
    D9       -2.12209   0.00000  -0.00016  -0.00213  -0.00232  -2.12441
   D10       -0.00092   0.00006   0.00006   0.00169   0.00175   0.00082
   D11        1.02213  -0.00020   0.00086  -0.00697  -0.00614   1.01599
   D12       -1.01224  -0.00008   0.00037  -0.00443  -0.00404  -1.01628
   D13       -3.13989  -0.00015   0.00107  -0.00315  -0.00207   3.14122
[...]
 ! D4    D(19,1,2,20)           -0.0321         -DE/DX =    0.0                 !
 ! D5    D(2,1,3,5)            -58.2224         -DE/DX =    0.0                 !
 ! D6    D(2,1,3,13)            58.1748         -DE/DX =    0.0                 !
 ! D7    D(2,1,3,18)          -180.019          -DE/DX =    0.0                 !
 ! D8    D(19,1,3,5)           121.8104         -DE/DX =    0.0                 !
 ! D9    D(19,1,3,13)         -121.7924         -DE/DX =    0.0                 !
 ! D10   D(19,1,3,18)            0.0139         -DE/DX =    0.0                 !
 ! D11   D(1,2,4,6)             58.1748         -DE/DX =    0.0                 !
 ! D12   D(1,2,4,11)           -58.2224         -DE/DX =    0.0                 !
 ! D13   D(1,2,4,12)          -180.019          -DE/DX =    0.0                 !
 ! D14   D(20,2,4,6)          -121.7924         -DE/DX =    0.0                 !
 ! D15   D(20,2,4,11)          121.8104         -DE/DX =    0.0                 !
 ! D16   D(20,2,4,12)            0.0139         -DE/DX =    0.0                 !
 ! D17   D(1,3,5,6)             55.4581         -DE/DX =    0.0                 !
 ! D18   D(1,3,5,7)            -66.5025         -DE/DX =    0.0                 !
 ! D19   D(1,3,5,8)            177.5217         -DE/DX =    0.0                 !
 ! D20   D(13,3,5,6)           -60.5905         -DE/DX =    0.0                 !
 ! D21   D(13,3,5,7)           177.4489         -DE/DX =    0.0                 !
 ! D22   D(13,3,5,8)            61.4731         -DE/DX =    0.0                 !
 ! D23   D(18,3,5,6)           177.8922         -DE/DX =    0.0                 !
 ! D24   D(18,3,5,7)            55.9316         -DE/DX =    0.0                 !
 ! D25   D(18,3,5,8)           -60.0442         -DE/DX =    0.0                 !
 ! D26   D(1,3,13,11)          -55.488          -DE/DX =    0.0                 !
 ! D27   D(1,3,13,16)           66.4737         -DE/DX =    0.0                 !
 ! D28   D(1,3,13,17)         -177.5527         -DE/DX =    0.0                 !
 ! D29   D(5,3,13,11)           60.5597         -DE/DX =    0.0                 !
 ! D30   D(5,3,13,16)         -177.4785         -DE/DX =    0.0                 !
 ! D31   D(5,3,13,17)          -61.5049         -DE/DX =    0.0                 !
 ! D32   D(18,3,13,11)        -177.9274         -DE/DX =    0.0                 !
 ! D33   D(18,3,13,16)         -55.9657         -DE/DX =    0.0                 !
 ! D34   D(18,3,13,17)          60.0079         -DE/DX =    0.0                 !
 ! D35   D(2,4,6,5)            -55.488          -DE/DX =    0.0                 !
 ! D36   D(2,4,6,9)             66.4737         -DE/DX =    0.0                 !
 ! D37   D(2,4,6,10)          -177.5527         -DE/DX =    0.0                 !
 ! D38   D(11,4,6,5)            60.5597         -DE/DX =    0.0                 !
 ! D39   D(11,4,6,9)          -177.4785         -DE/DX =    0.0                 !
 ! D40   D(11,4,6,10)          -61.5049         -DE/DX =    0.0                 !
 ! D41   D(12,4,6,5)          -177.9274         -DE/DX =    0.0                 !
 ! D42   D(12,4,6,9)           -55.9657         -DE/DX =    0.0                 !
 ! D43   D(12,4,6,10)           60.0079         -DE/DX =    0.0                 !
 ! D44   D(2,4,11,13)           55.4581         -DE/DX =    0.0                 !
 ! D45   D(2,4,11,14)          177.5217         -DE/DX =    0.0                 !
 ! D46   D(2,4,11,15)          -66.5026         -DE/DX =    0.0                 !
 ! D47   D(6,4,11,13)          -60.5905         -DE/DX =    0.0                 !
 ! D48   D(6,4,11,14)           61.4731         -DE/DX =    0.0                 !
 ! D49   D(6,4,11,15)          177.4489         -DE/DX =    0.0                 !
 ! D50   D(12,4,11,13)         177.8922         -DE/DX =    0.0                 !
 ! D51   D(12,4,11,14)         -60.0442         -DE/DX =    0.0                 !
 ! D52   D(12,4,11,15)          55.9316         -DE/DX =    0.0                 !
 ! D53   D(3,5,6,4)              0.0269         -DE/DX =    0.0                 !
 ! D54   D(3,5,6,9)           -121.3537         -DE/DX =    0.0                 !
 ! D55   D(3,5,6,10)           121.4258         -DE/DX =    0.0                 !
 ! D56   D(7,5,6,4)            121.4129         -DE/DX =    0.0                 !
 ! D57   D(7,5,6,9)              0.0323         -DE/DX =    0.0                 !
 ! D58   D(7,5,6,10)          -117.1882         -DE/DX =    0.0                 !
 ! D59   D(8,5,6,4)           -121.3694         -DE/DX =    0.0                 !
 ! D60   D(8,5,6,9)            117.25           -DE/DX =    0.0                 !
 ! D61   D(8,5,6,10)             0.0295         -DE/DX =    0.0                 !
 ! D62   D(4,11,13,3)            0.0269         -DE/DX =    0.0                 !
 ! D63   D(4,11,13,16)        -121.3537         -DE/DX =    0.0                 !
 ! D64   D(4,11,13,17)         121.4258         -DE/DX =    0.0                 !
 ! D65   D(14,11,13,3)        -121.3694         -DE/DX =    0.0                 !
 ! D66   D(14,11,13,16)        117.25           -DE/DX =    0.0                 !
 ! D67   D(14,11,13,17)          0.0295         -DE/DX =    0.0                 !
 ! D68   D(15,11,13,3)         121.4129         -DE/DX =    0.0                 !
 ! D69   D(15,11,13,16)          0.0323         -DE/DX =    0.0                 !
 ! D70   D(15,11,13,17)       -117.1882         -DE/DX =    0.0                 !
 --------------------------------------------------------------------------------
 GradGradGradGradGradGradGradGradGradGradGradGradGradGradGradGradGradGrad

                          Input orientation:                          
 ---------------------------------------------------------------------
 Center     Atomic      Atomic             Coordinates (Angstroms)
 Number     Number       Type             X           Y           Z
 ---------------------------------------------------------------------
      1          6           0       -1.816414    3.607131    0.611735
      2          6           0       -1.800291    2.276911    0.458406
      3          6           0       -0.643627    4.309458   -0.012458
      4          6           0       -0.612310    1.763163   -0.305187
      5          6           0        0.634871    3.733554    0.619499
      6          6           0        0.653425    2.211558    0.444903
      7          1           0        0.680500    4.006756    1.690142
      8          1           0        1.524991    4.195633    0.152161
      9          1           0        0.707987    1.704128    1.426001
     10          1           0        1.553368    1.888807   -0.111998
     11          6           0       -0.617101    2.440811   -1.685898
     12          1           0       -0.636704    0.656706   -0.409791
     13          6           0       -0.636226    3.962762   -1.510965
     14          1           0        0.270589    2.120744   -2.263652
     15          1           0       -1.494013    2.101206   -2.267867
     16          1           0       -1.523234    4.403695   -2.002708
     17          1           0        0.241316    4.427499   -1.998965
     18          1           0       -0.695104    5.409854    0.136747
     19          1           0       -2.588455    4.173557    1.133148
     20          1           0       -2.556867    1.588378    0.835596
 ---------------------------------------------------------------------
                    Distance matrix (angstroms):
                    1          2          3          4          5
     1  C    0.000000
     2  C    1.339124   0.000000
     3  C    1.502768   2.385546   0.000000
     4  C    2.385546   1.502768   2.563257   0.000000
     5  C    2.454555   2.842142   1.538048   2.508574   0.000000
     6  C    2.841753   2.454623   2.508527   1.538108   1.532090
     7  H    2.749044   3.265557   2.178023   3.269006   1.105892
     8  H    3.423818   3.851335   2.177833   3.270188   1.106452
     9  H    3.264514   2.748778   3.268604   2.177999   2.185031
    10  H    3.851216   3.423889   3.270512   2.177905   2.186737
    11  C    2.842142   2.454555   2.508574   1.538048   2.924632
    12  H    3.337699   2.175492   3.674305   1.111658   3.484728
    13  C    2.454623   2.841753   1.538108   2.508527   2.491406
    14  H    3.851335   3.423818   3.270188   2.177833   3.323615
    15  H    3.265557   2.749044   3.269006   2.178023   3.941268
    16  H    2.748778   3.264514   2.177999   3.268604   3.461571
    17  H    3.423889   3.851216   2.177905   3.270512   2.737299
    18  H    2.175492   3.337699   1.111658   3.674305   2.193597
    19  H    1.090301   2.161885   2.261247   3.432777   3.293519
    20  H    2.161885   1.090301   3.432777   2.261247   3.851709
                    6          7          8          9         10
     6  C    0.000000
     7  H    2.184969   0.000000
     8  H    2.186751   1.764716   0.000000
     9  H    1.105901   2.317892   2.915091   0.000000
    10  H    1.106438   2.914672   2.322075   1.764714   0.000000
    11  C    2.491406   3.941268   3.323615   3.461571   2.737299
    12  H    2.193740   4.167443   4.184820   2.505079   2.530449
    13  C    2.924950   3.461616   2.736983   3.941333   3.324563
    14  H    2.736983   4.399721   3.422695   3.738773   2.515737
    15  H    3.461616   4.901577   4.399721   4.318696   3.738906
    16  H    3.941333   4.318696   3.738773   4.901230   4.400560
    17  H    3.324563   3.738906   2.515737   4.400560   3.424483
    18  H    3.484622   2.504796   2.530492   4.166923   4.185125
    19  H    3.851351   3.320260   4.228860   4.129210   4.891336
    20  H    3.293473   4.130296   4.891464   3.319827   4.228738
                   11         12         13         14         15
    11  C    0.000000
    12  H    2.193597   0.000000
    13  C    1.532090   3.484622   0.000000
    14  H    1.106452   2.530492   2.186751   0.000000
    15  H    1.105892   2.504796   2.184969   1.764716   0.000000
    16  H    2.185031   4.166923   1.105901   2.915092   2.317892
    17  H    2.186737   4.185125   1.106438   2.322075   2.914673
    18  H    3.484728   4.784823   2.193740   4.184820   4.167443
    19  H    3.851709   4.307927   3.293473   4.891464   4.130296
    20  H    3.293519   2.471037   3.851351   4.228860   3.320261
                   16         17         18         19         20
    16  H    0.000000
    17  H    1.764714   0.000000
    18  H    2.505079   2.530449   0.000000
    19  H    3.319827   4.228738   2.471037   0.000000
    20  H    4.129210   4.891336   4.307927   2.602439   0.000000
 Symmetry turned off by external request.
 Stoichiometry    C8H12
 Framework group  C1[X(C8H12)]
 Deg. of freedom    54
 Full point group                 C1      NOp   1
 Rotational constants (GHZ):      2.6038644      2.5450318      2.4796797

 **********************************************************************

            Population analysis using the SCF density.

 **********************************************************************

 Alpha  occ. eigenvalues --   -1.57640  -1.12883  -1.12309  -1.10071  -0.79870
 Alpha  occ. eigenvalues --   -0.78018  -0.76139  -0.66852  -0.61477  -0.58072
 Alpha  occ. eigenvalues --   -0.57462  -0.53284  -0.49820  -0.49597  -0.49547
 Alpha  occ. eigenvalues --   -0.49260  -0.47962  -0.45965  -0.41908  -0.40717
 Alpha  occ. eigenvalues --   -0.40224  -0.36411
 Alpha virt. eigenvalues --    0.04213   0.12731   0.12788   0.13026   0.13370
 Alpha virt. eigenvalues --    0.13854   0.13964   0.14068   0.14738   0.15326
 Alpha virt. eigenvalues --    0.15645   0.16233   0.16446   0.16637   0.17479
 Alpha virt. eigenvalues --    0.17797   0.17988   0.17988   0.19199   0.19392
 Alpha virt. eigenvalues --    0.21137   0.22260
          Condensed to atoms (all electrons):
              1          2          3          4          5          6
     1  C    4.147539   0.000000   0.000000   0.000000   0.000000   0.000000
     2  C    0.000000   4.147539   0.000000   0.000000   0.000000   0.000000
     3  C    0.000000   0.000000   4.044269   0.000000   0.000000   0.000000
     4  C    0.000000   0.000000   0.000000   4.044269   0.000000   0.000000
     5  C    0.000000   0.000000   0.000000   0.000000   4.092495   0.000000
     6  C    0.000000   0.000000   0.000000   0.000000   0.000000   4.092486
     7  H    0.000000   0.000000   0.000000   0.000000   0.000000   0.000000
     8  H    0.000000   0.000000   0.000000   0.000000   0.000000   0.000000
     9  H    0.000000   0.000000   0.000000   0.000000   0.000000   0.000000
    10  H    0.000000   0.000000   0.000000   0.000000   0.000000   0.000000
    11  C    0.000000   0.000000   0.000000   0.000000   0.000000   0.000000
    12  H    0.000000   0.000000   0.000000   0.000000   0.000000   0.000000
    13  C    0.000000   0.000000   0.000000   0.000000   0.000000   0.000000
    14  H    0.000000   0.000000   0.000000   0.000000   0.000000   0.000000
    15  H    0.000000   0.000000   0.000000   0.000000   0.000000   0.000000
    16  H    0.000000   0.000000   0.000000   0.000000   0.000000   0.000000
    17  H    0.000000   0.000000   0.000000   0.000000   0.000000   0.000000
    18  H    0.000000   0.000000   0.000000   0.000000   0.000000   0.000000
    19  H    0.000000   0.000000   0.000000   0.000000   0.000000   0.000000
    20  H    0.000000   0.000000   0.000000   0.000000   0.000000   0.000000
              7          8          9         10         11         12
     1  C    0.000000   0.000000   0.000000   0.000000   0.000000   0.000000
     2  C    0.000000   0.000000   0.000000   0.000000   0.000000   0.000000
     3  C    0.000000   0.000000   0.000000   0.000000   0.000000   0.000000
     4  C    0.000000   0.000000   0.000000   0.000000   0.000000   0.000000
     5  C    0.000000   0.000000   0.000000   0.000000   0.000000   0.000000
     6  C    0.000000   0.000000   0.000000   0.000000   0.000000   0.000000
     7  H    0.949463   0.000000   0.000000   0.000000   0.000000   0.000000
     8  H    0.000000   0.950229   0.000000   0.000000   0.000000   0.000000
     9  H    0.000000   0.000000   0.949463   0.000000   0.000000   0.000000
    10  H    0.000000   0.000000   0.000000   0.950229   0.000000   0.000000
    11  C    0.000000   0.000000   0.000000   0.000000   4.092495   0.000000
    12  H    0.000000   0.000000   0.000000   0.000000   0.000000   0.932319
    13  C    0.000000   0.000000   0.000000   0.000000   0.000000   0.000000
    14  H    0.000000   0.000000   0.000000   0.000000   0.000000   0.000000
    15  H    0.000000   0.000000   0.000000   0.000000   0.000000   0.000000
    16  H    0.000000   0.000000   0.000000   0.000000   0.000000   0.000000
    17  H    0.000000   0.000000   0.000000   0.000000   0.000000   0.000000
    18  H    0.000000   0.000000   0.000000   0.000000   0.000000   0.000000
    19  H    0.000000   0.000000   0.000000   0.000000   0.000000   0.000000
    20  H    0.000000   0.000000   0.000000   0.000000   0.000000   0.000000
             13         14         15         16         17         18
     1  C    0.000000   0.000000   0.000000   0.000000   0.000000   0.000000
     2  C    0.000000   0.000000   0.000000   0.000000   0.000000   0.000000
     3  C    0.000000   0.000000   0.000000   0.000000   0.000000   0.000000
     4  C    0.000000   0.000000   0.000000   0.000000   0.000000   0.000000
     5  C    0.000000   0.000000   0.000000   0.000000   0.000000   0.000000
     6  C    0.000000   0.000000   0.000000   0.000000   0.000000   0.000000
     7  H    0.000000   0.000000   0.000000   0.000000   0.000000   0.000000
     8  H    0.000000   0.000000   0.000000   0.000000   0.000000   0.000000
     9  H    0.000000   0.000000   0.000000   0.000000   0.000000   0.000000
    10  H    0.000000   0.000000   0.000000   0.000000   0.000000   0.000000
    11  C    0.000000   0.000000   0.000000   0.000000   0.000000   0.000000
    12  H    0.000000   0.000000   0.000000   0.000000   0.000000   0.000000
    13  C    4.092486   0.000000   0.000000   0.000000   0.000000   0.000000
    14  H    0.000000   0.950229   0.000000   0.000000   0.000000   0.000000
    15  H    0.000000   0.000000   0.949463   0.000000   0.000000   0.000000
    16  H    0.000000   0.000000   0.000000   0.949463   0.000000   0.000000
    17  H    0.000000   0.000000   0.000000   0.000000   0.950229   0.000000
    18  H    0.000000   0.000000   0.000000   0.000000   0.000000   0.932319
    19  H    0.000000   0.000000   0.000000   0.000000   0.000000   0.000000
    20  H    0.000000   0.000000   0.000000   0.000000   0.000000   0.000000
             19         20
     1  C    0.000000   0.000000
     2  C    0.000000   0.000000
     3  C    0.000000   0.000000
     4  C    0.000000   0.000000
     5  C    0.000000   0.000000
     6  C    0.000000   0.000000
     7  H    0.000000   0.000000
     8  H    0.000000   0.000000
     9  H    0.000000   0.000000
    10  H    0.000000   0.000000
    11  C    0.000000   0.000000
    12  H    0.000000   0.000000
    13  C    0.000000   0.000000
    14  H    0.000000   0.000000
    15  H    0.000000   0.000000
    16  H    0.000000   0.000000
    17  H    0.000000   0.000000
    18  H    0.000000   0.000000
    19  H    0.891508   0.000000
    20  H    0.000000   0.891508
 Mulliken atomic charges:
              1
     1  C   -0.147539
     2  C   -0.147539
     3  C   -0.044269
     4  C   -0.044269
     5  C   -0.092495
     6  C   -0.092486
     7  H    0.050537
     8  H    0.049771
     9  H    0.050537
    10  H    0.049771
    11  C   -0.092495
    12  H    0.067681
    13  C   -0.092486
    14  H    0.049771
    15  H    0.050537
    16  H    0.050537
    17  H    0.049771
    18  H    0.067681
    19  H    0.108492
    20  H    0.108492
 Sum of Mulliken atomic charges =   0.00000
 Mulliken charges with hydrogens summed into heavy atoms:
              1
     1  C   -0.039047
     2  C   -0.039047
     3  C    0.023412
     4  C    0.023412
     5  C    0.007814
     6  C    0.007822
    11  C    0.007814
    13  C    0.007822
 Sum of Mulliken charges with hydrogens summed into heavy atoms =   0.00000
 Charge=              0.0000 electrons
 Dipole moment (field-independent basis, Debye):
    X=              0.1546    Y=              0.0124    Z=             -0.0909  Tot=              0.1798
 N-N= 2.225541246012D+02 E-N=-3.871807210806D+02  KE=-2.841241092153D+01
 1\1\GINC-WOLF01\FOpt\RPM3\ZDO\C8H12\KULHANEK\15-Oct-2012\0\\# PM3 Opt 
 NoSymm\\Title\\0,1\C,-1.8164144496,3.6071306797,0.6117351938\C,-1.8002
 910967,2.2769109625,0.4584059513\C,-0.6436269988,4.3094577894,-0.01245
 82275\C,-0.6123095778,1.7631630469,-0.3051870446\C,0.634870606,3.73355
 36664,0.6194994804\C,0.6534245148,2.2115576085,0.4449026426\H,0.680499
 6089,4.0067560976,1.6901417145\H,1.5249907478,4.1956327907,0.152161435
 4\H,0.7079872889,1.7041280224,1.4260011838\H,1.5533681564,1.8888068386
 ,-0.1119978688\C,-0.6171005159,2.4408113915,-1.6858977528\H,-0.6367043
 364,0.6567060125,-0.4097905875\C,-0.6362260772,3.9627617386,-1.5109649
 035\H,0.2705894055,2.1207443528,-2.2636516723\H,-1.4940134241,2.101205
 5178,-2.2678668373\H,-1.5232339485,4.4036952955,-2.0027075861\H,0.2413
 157474,4.4274988645,-1.9989654559\H,-0.6951038694,5.4098541757,0.13674
 66377\H,-2.5884549876,4.1735572049,1.1331478338\H,-2.5568667939,1.5883
 779435,0.835595863\\Version=EM64L-G09RevC.01\HF=0.0026958\RMSD=5.343e-
 09\RMSF=4.113e-05\Dipole=0.0608385,0.0048598,-0.0357641\PG=C01 [X(C8H1
 2)]\\@


 LAW OF COMPENSATION:
      NO CALCULATION IS EVER A COMPLETE FAILURE; IT 
      CAN ALWAYS SERVE AS A BAD EXAMPLE.

                                           -- ANON
 Job cpu time:  0 days  0 hours  0 minutes  3.4 seconds.
 File lengths (MBytes):  RWF=     22 Int=      0 D2E=      0 Chk=      3 Scr=      1
 Normal termination of Gaussian 09 at Mon Oct 15 16:12:17 2012.
